mv: cannot stat '../.sub.sh': No such file or directory

                                 *****************
                                 * O   R   C   A *
                                 *****************

           --- An Ab Initio, DFT and Semiempirical electronic structure package ---

                  #######################################################
                  #                        -***-                        #
                  #          Department of theory and spectroscopy      #
                  #               Directorship: Frank Neese             #
                  #        Max Planck Institute fuer Kohlenforschung    #
                  #                Kaiser Wilhelm Platz 1               #
                  #                 D-45470 Muelheim/Ruhr               #
                  #                      Germany                        #
                  #                                                     #
                  #                  All rights reserved                #
                  #                        -***-                        #
                  #######################################################


                         Program Version 4.2.1 -  RELEASE  -


 With contributions from (in alphabetic order):
   Daniel Aravena         : Magnetic Suceptibility
   Michael Atanasov       : Ab Initio Ligand Field Theory (pilot matlab implementation)
   Alexander A. Auer      : GIAO ZORA, VPT2
   Ute Becker             : Parallelization
   Giovanni Bistoni       : ED, misc. LED, open-shell LED, HFLD
   Martin Brehm           : Molecular dynamics
   Dmytro Bykov           : SCF Hessian
   Vijay G. Chilkuri      : MRCI spin determinant printing, contributions to CSF-ICE
   Dipayan Datta          : RHF DLPNO-CCSD density
   Achintya Kumar Dutta   : EOM-CC, STEOM-CC
   Dmitry Ganyushin       : Spin-Orbit,Spin-Spin,Magnetic field MRCI
   Miquel Garcia          : C-PCM Hessian, Gaussian charge scheme
   Yang Guo               : DLPNO-NEVPT2, CIM, IAO-localization
   Andreas Hansen         : Spin unrestricted coupled pair/coupled cluster methods
   Benjamin Helmich-Paris : CASSCF linear response (MC-RPA)
   Lee Huntington         : MR-EOM, pCC
   Robert Izsak           : Overlap fitted RIJCOSX, COSX-SCS-MP3, EOM
   Christian Kollmar      : KDIIS, OOCD, Brueckner-CCSD(T), CCSD density
   Simone Kossmann        : Meta GGA functionals, TD-DFT gradient, OOMP2, MP2 Hessian
   Martin Krupicka        : AUTO-CI
   Lucas Lang             : DCDCAS
   Dagmar Lenk            : GEPOL surface, SMD
   Dimitrios Liakos       : Extrapolation schemes; Compound Job, initial MDCI parallelization
   Dimitrios Manganas     : Further ROCIS development; embedding schemes
   Dimitrios Pantazis     : SARC Basis sets
   Taras Petrenko         : DFT Hessian,TD-DFT gradient, ASA, ECA, R-Raman, ABS, FL, XAS/XES, NRVS
   Peter Pinski           : DLPNO-MP2, DLPNO-MP2 Gradient
   Christoph Reimann      : Effective Core Potentials
   Marius Retegan         : Local ZFS, SOC
   Christoph Riplinger    : Optimizer, TS searches, QM/MM, DLPNO-CCSD(T), (RO)-DLPNO pert. Triples
   Tobias Risthaus        : Range-separated hybrids, TD-DFT gradient, RPA, STAB
   Michael Roemelt        : Original ROCIS implementation
   Masaaki Saitow         : Open-shell DLPNO-CCSD energy and density
   Barbara Sandhoefer     : DKH picture change effects
   Avijit Sen             : IP-ROCIS
   Kantharuban Sivalingam : CASSCF convergence, NEVPT2, FIC-MRCI
   Bernardo de Souza      : ESD, SOC TD-DFT
   Georgi Stoychev        : AutoAux, RI-MP2 NMR
   Willem Van den Heuvel  : Paramagnetic NMR
   Boris Wezisla          : Elementary symmetry handling
   Frank Wennmohs         : Technical directorship


 We gratefully acknowledge several colleagues who have allowed us to
 interface, adapt or use parts of their codes:
   Stefan Grimme, W. Hujo, H. Kruse,             : VdW corrections, initial TS optimization,
                  C. Bannwarth                     DFT functionals, gCP, sTDA/sTD-DF
   Ed Valeev, F. Pavosevic, A. Kumar             : LibInt (2-el integral package), F12 methods
   Garnet Chan, S. Sharma, J. Yang, R. Olivares  : DMRG
   Ulf Ekstrom                                   : XCFun DFT Library
   Mihaly Kallay                                 : mrcc  (arbitrary order and MRCC methods)
   Andreas Klamt, Michael Diedenhofen            : otool_cosmo (COSMO solvation model)
   Jiri Pittner, Ondrej Demel                    : Mk-CCSD
   Frank Weinhold                                : gennbo (NPA and NBO analysis)
   Christopher J. Cramer and Donald G. Truhlar   : smd solvation model
   Lars Goerigk                                  : TD-DFT with DH, B97 family of functionals
   V. Asgeirsson, H. Jonsson                     : NEB implementation
   FAccTs GmbH                                   : IRC, NEB, NEB-TS, Multilevel, MM, QM/MM, CI optimization
   S Lehtola, MJT Oliveira, MAL Marques          : LibXC Library


 Your calculation uses the libint2 library for the computation of 2-el integrals
 For citations please refer to: http://libint.valeyev.net

 Your ORCA version has been built with support for libXC version: 4.2.3
 For citations please refer to: https://tddft.org/programs/libxc/

 This ORCA versions uses:
   CBLAS   interface :  Fast vector & matrix operations
   LAPACKE interface :  Fast linear algebra routines
   SCALAPACK package :  Parallel linear algebra routines


----- Orbital basis set information -----
Your calculation utilizes the basis: EPR-II
   V. Barone, in Recent Advances in Density Functional Methods, Part 1 (ed. D. P. Chong), World Scientific, Singapore, 1995, p. 287.

================================================================================
                                        WARNINGS
                       Please study these warnings very carefully!
================================================================================


WARNING: Geometry Optimization
  ===> : Switching off AutoStart
         For restart on a previous wavefunction, please use MOREAD

WARNING: Broken symmetry calculations need fully converged wavefunctions
  ===> : Setting SCFConvForced true
         You can overwrite this default with %scf ConvForced false 


INFO   : the flag for use of LIBINT has been found!

================================================================================
                                       INPUT FILE
================================================================================
NAME = 5-dAdo-2minusBHandHLYP_3A_sbdft_aab.inp
|  1> !UKS BHandHLYP EPR-II Grid7 veryTightSCF verySlowConv opt
|  2> #this is a BS-DFT calculation
|  3> %pal nprocs 32 end
|  4> 
|  5> %maxcore 8000
|  6> 
|  7> #BE SURE TO ADJUST THIS LINE BEFORE SUBMITTING IT WILL BE DIFFERENT FOR EACH JOB
|  8> 
|  9> %cpcm
| 10>  epsilon 20
| 11> end
| 12> 
| 13> %scf
| 14>   maxiter 3000
| 15>   DIISMaxEq 15
| 16>   directresetfreq 1
| 17>   #guessmode cmatrix
| 18> 	flipspin 2
| 19> 	finalms 4.5
| 20> end
| 21> 
| 22> #aab conf.
| 23> 
| 24> %basis
| 25> 	NewGTO Fe "CP(PPP)" end
| 26> 	NewGTO S "def2-TZVP" end
| 27> end
| 28> 
| 29> %method
| 30> Z_solver DIIS
| 31> Z_MaxIter 128 # maximum number of CP-SCF iterations
| 32> Z_MaxDIIS 5 # for DIIS: maximum number of expansion vectors
| 33> Z_Shift 0.3 # for DIIS: level shift
| 34> Z_Tol 1e-6 # convergence tolerance on residual
| 35> End
| 36> 
| 37> %method
| 38>  SpecialGridAtoms 26
| 39>  SpecialGridIntAcc 7
| 40> end
| 41> 
| 42> # newGTO "EPR-III" end
| 43> #adjust charge and apply newGTO "EPR-III" end to the carbon radical and attached atoms. (atom 3)
| 44> 
| 45> *xyz  -2 10
| 46>   Fe  -0.69602977667723     -1.13913623718869      0.44616924364473
| 47>   Fe  -2.17055912803038     -3.41852198519371      1.67220653079273
| 48>   C   2.23664903191099     -1.74687609882491      0.61951070025818 newGTO "EPR-III" end
| 49>   C   2.75201981783359     -2.98090267293789     -0.00941041366115
| 50>   H   2.76938010433757     -0.88540327457528      0.21845530663277
| 51>   H   2.40924731003685     -1.79003452680931      1.69071778695098
| 52>   S   -1.16727887129843     -1.61993807571143      2.75293697224908
| 53>   S   -3.24143706239809     -0.61338267314970      0.29576371218213
| 54>   S   -1.57268599667768     -3.16569930030696     -0.57041103078700
| 55>   N   -0.09428980570937      0.91391957052592      0.99190509635963
| 56>   C   -0.13489969382652      1.81607360535555     -0.14302960534369
| 57>   C   -0.02345867723637      1.04183624026946     -1.43787811163192
| 58>   O   -0.24120837536504     -0.19608715124843     -1.35220681483730
| 59>   O   4.18861395438470     -3.22694620149688      0.21706176716975
| 60>   C   2.58473669258071     -3.01632086756176     -1.53689867695495
| 61>   O   2.29093004563419     -1.76288538260727     -2.10761095539294
| 62>   C   3.95249948262675     -3.44051503466148     -2.05854914342176
| 63>   O   4.24493505357691     -2.95970053091329     -3.34349925519635
| 64>   C   4.87517160823422     -2.93371728480638     -0.96811395972361
| 65>   O   0.22862710689643      1.64787649767184     -2.47331625629295
| 66>   H   4.00717909211731     -4.52236797696834     -2.09499282660279
| 67>   H   1.80568443119729     -3.72000015573303     -1.80999219576969
| 68>   H   -0.73681648480844      1.20482497664828      1.70566490357164
| 69>   H   0.82371760322844      0.84377604722314      1.39343827526105
| 70>   H   1.59268817873087     -1.35309285980422     -1.58541655407960
| 71>   H   3.80595555420508     -2.11194860934846     -3.42583904239984
| 72>   H   2.26004864837217     -3.85214368001028      0.40946284193532
| 73>   H   5.03282899508132     -1.86037755326864     -1.09054217473360
| 74>   H   5.83962672592669     -3.42763106389391     -0.95704924540672
| 75>   H   -1.09539168315829      2.31763279860369     -0.16283725841504
| 76>   H   0.63543154299118      2.57671031416451     -0.10796413268674
| 77>   C   -3.66293485792810     -0.69032123046174     -1.46061406148560
| 78>   H   -4.71234302357544     -0.45364775427684     -1.60560587346782
| 79>   H   -3.46134455150945     -1.69077780514960     -1.82305754279652
| 80>   H   -3.07005208430403      0.00837525996677     -2.03997559937002
| 81>   N   -1.05645380199686     -5.11013730860514      2.43142456159522
| 82>   C   0.22734103143491     -4.92785580914549      2.59795870242254
| 83>   N   0.83423697845032     -6.08753924632180      2.85784578191695
| 84>   C   -0.11167689916824     -7.07450394991103      2.85547699757806
| 85>   C   -1.28284552841848     -6.45234842966059      2.58683061054589
| 86>   H   -2.25864514096321     -6.87805829790001      2.48881857472909
| 87>   H   1.81172162145307     -6.20796295867153      3.02769998077855
| 88>   H   0.13041207312283     -8.09818376728091      3.04133270160918
| 89>   H   0.72344238419931     -3.98196546183695      2.52571931153323
| 90>   N   -4.15266771426275     -3.97332542837952      2.14990946663957
| 91>   C   -5.18845215396331     -3.40567419624070      1.58659336725377
| 92>   N   -6.31773517755984     -3.96068664942712      2.02643662525091
| 93>   C   -4.64402234989752     -4.93654889809936      2.99354467812077
| 94>   C   -5.99414213232987     -4.93840046859986      2.92561383657734
| 95>   H   -5.13112563588582     -2.59634901371660      0.88724663250928
| 96>   H   -4.00063160932233     -5.54840542469344      3.58831772179635
| 97>   H   -6.73517205709661     -5.52732136651764      3.42044104381969
| 98>   H   -7.24069479519589     -3.70070264851276      1.74438699877313
| 99> *
|100> 
|101> %eprnmr
|102>     gtensor true
|103>     nuclei = all H {aiso, adip, rho} # this compute the hyperfine coupling for all hydrogens.
|104>     nuclei = all C {aiso, adip, rho}
|105>     nuclei = all Fe {aiso, adip, rho}
|106> end
|107> 
|108> %plots
|109>   dim1 150
|110>   dim2 150
|111>   dim3 150
|112>   min1 -20.0
|113>   max1 20.0
|114>   min2 -20.0
|115>   max2 20.0
|116>   min3 -20.0
|117>   max3 20.0
|118>   Format Gaussian_Cube
|119>   MO("5-dAdo_2minusBHandHLYP_3A_sbdft_aab_MO144.cube", 144, 1);
|120>   MO("5-dAdo_2minusBHandHLYP_3A_sbdft_aab_MO143.cube", 143, 1);
|121>   MO("5-dAdo_2minusBHandHLYP_3A_sbdft_aab_MO142.cube", 142, 1);
|122>   MO("5-dAdo_2minusBHandHLYP_3A_sbdft_aab_MO141.cube", 141, 1);
|123>   MO("5-dAdo_2minusBHandHLYP_3A_sbdft_aab_MO140.cube", 140, 1);
|124>   MO("5-dAdo_2minusBHandHLYP_3A_sbdft_aab_MO139.cube", 139, 1);
|125>   MO("5-dAdo_2minusBHandHLYP_3A_sbdft_aab_MO138.cube", 138, 1);
|126>   MO("5-dAdo_2minusBHandHLYP_3A_sbdft_aab_MO137.cube", 137, 1);
|127>   MO("5-dAdo_2minusBHandHLYP_3A_sbdft_aab_MO136.cube", 136, 1);
|128>   MO("5-dAdo_2minusBHandHLYP_3A_sbdft_aab_MO135.cube", 135, 1);
|129>   MO("5-dAdo_2minusBHandHLYP_3A_sbdft_aab_MO134.cube", 134, 1);
|130>   MO("5-dAdo_2minusBHandHLYP_3A_sbdft_aab_MO133.cube", 133, 1);
|131>   MO("5-dAdo_2minusBHandHLYP_3A_sbdft_aab_MO132.cube", 132, 1);
|132>   MO("5-dAdo_2minusBHandHLYP_3A_sbdft_aab_MO131.cube", 131, 1);
|133>   MO("5-dAdo_2minusBHandHLYP_3A_sbdft_aab_MO130.cube", 130, 1);
|134> End
|135> 
|136>                          ****END OF INPUT****
================================================================================

                       *****************************
                       * Geometry Optimization Run *
                       *****************************

Geometry optimization settings:
Update method            Update   .... BFGS
Choice of coordinates    CoordSys .... Z-matrix Internals
Initial Hessian          InHess   .... Almoef's Model

Convergence Tolerances:
Energy Change            TolE     ....  5.0000e-06 Eh
Max. Gradient            TolMAXG  ....  3.0000e-04 Eh/bohr
RMS Gradient             TolRMSG  ....  1.0000e-04 Eh/bohr
Max. Displacement        TolMAXD  ....  4.0000e-03 bohr
RMS Displacement         TolRMSD  ....  2.0000e-03 bohr
Strict Convergence                ....  False
------------------------------------------------------------------------------
                        ORCA OPTIMIZATION COORDINATE SETUP
------------------------------------------------------------------------------

The optimization will be done in new redundant internal coordinates
Making redundant internal coordinates   ...  (new redundants) done
Evaluating the initial hessian          ...  (Almloef) done
Evaluating the coordinates              ...  done
Calculating the B-matrix                .... done
Calculating the G-matrix                .... done
Diagonalizing the G-matrix              .... done
Small eigenvalue found = 8.467e-03
Small eigenvalue found = 8.948e-03
Small eigenvalue found = 1.255e-02
Small eigenvalue found = 1.485e-02
Small eigenvalue found = 2.240e-02
Small eigenvalue found = 2.608e-02
Small eigenvalue found = 2.907e-02
The first mode is                       ....  215
The number of degrees of freedom        ....  153

    -----------------------------------------------------------------
                    Redundant Internal Coordinates


    -----------------------------------------------------------------
         Definition                    Initial Value    Approx d2E/dq
    -----------------------------------------------------------------
      1. B(Fe  1,Fe  0)                  2.9788         0.186735   
      2. B(C   3,C   2)                  1.4778         0.452499   
      3. B(H   4,C   2)                  1.0894         0.360900   
      4. B(H   5,C   2)                  1.0859         0.365590   
      5. B(S   6,Fe  1)                  2.3258         0.547753   
      6. B(S   6,Fe  0)                  2.4030         0.412524   
      7. B(S   7,Fe  0)                  2.6035         0.197512   
      8. B(S   8,Fe  1)                  2.3347         0.530229   
      9. B(S   8,Fe  0)                  2.4308         0.372442   
     10. B(N   9,Fe  0)                  2.2079         0.280572   
     11. B(C  10,N   9)                  1.4504         0.448270   
     12. B(C  11,C  10)                  1.5128         0.397974   
     13. B(O  12,Fe  0)                  2.0810         0.447333   
     14. B(O  12,C  11)                  1.2598         0.902672   
     15. B(O  13,C   3)                  1.4750         0.409507   
     16. B(C  14,C   3)                  1.5370         0.364052   
     17. B(O  15,C  14)                  1.4082         0.523332   
     18. B(C  16,C  14)                  1.5241         0.381781   
     19. B(O  17,C  16)                  1.4028         0.533927   
     20. B(C  18,C  16)                  1.5157         0.393786   
     21. B(C  18,O  13)                  1.4007         0.538009   
     22. B(O  19,C  11)                  1.2260         1.022350   
     23. B(H  20,C  16)                  1.0838         0.368333   
     24. B(H  21,C  14)                  1.0847         0.367122   
     25. B(H  22,N   9)                  1.0035         0.443240   
     26. B(H  23,N   9)                  1.0044         0.441648   
     27. B(H  24,O  12)                  2.1809         0.005863   
     28. B(H  24,O  15)                  0.9634         0.513483   
     29. B(H  25,O  17)                  0.9582         0.523387   
     30. B(H  26,C   3)                  1.0847         0.367194   
     31. B(H  27,C  18)                  1.0917         0.357802   
     32. B(H  28,C  18)                  1.0836         0.368630   
     33. B(H  29,C  10)                  1.0837         0.368473   
     34. B(H  30,C  10)                  1.0831         0.369280   
     35. B(C  31,S   7)                  1.8079         0.362911   
     36. B(H  32,C  31)                  1.0855         0.366112   
     37. B(H  33,C  31)                  1.0830         0.369462   
     38. B(H  34,C  31)                  1.0841         0.367944   
     39. B(N  35,Fe  1)                  2.1631         0.330745   
     40. B(C  36,N  35)                  1.3073         0.758200   
     41. B(N  37,C  36)                  1.3344         0.686307   
     42. B(C  38,N  37)                  1.3671         0.608796   
     43. B(C  39,C  38)                  1.3531         0.715496   
     44. B(C  39,N  35)                  1.3700         0.602232   
     45. B(H  40,C  39)                  1.0691         0.388807   
     46. B(H  41,N  37)                  0.9994         0.449867   
     47. B(H  42,C  38)                  1.0682         0.390112   
     48. B(H  43,H  26)                  2.6185         0.000251   
     49. B(H  43,C  36)                  1.0705         0.386794   
     50. B(N  44,Fe  1)                  2.1130         0.397652   
     51. B(C  45,N  44)                  1.3086         0.754681   
     52. B(N  46,C  45)                  1.3330         0.690049   
     53. B(C  47,N  44)                  1.3715         0.599001   
     54. B(C  48,C  47)                  1.3518         0.718850   
     55. B(C  48,N  46)                  1.3672         0.608552   
     56. B(H  49,C  45)                  1.0712         0.385909   
     57. B(H  50,C  47)                  1.0687         0.389439   
     58. B(H  51,C  48)                  1.0681         0.390289   
     59. B(H  52,N  46)                  0.9995         0.449727   
     60. A(S   8,Fe  0,O  12)           95.4641         0.486814   
     61. A(Fe  1,Fe  0,S   6)           49.8123         0.463013   
     62. A(S   7,Fe  0,S   8)           77.9715         0.438343   
     63. A(S   6,Fe  0,N   9)           90.1274         0.455332   
     64. A(Fe  1,Fe  0,S   8)           49.8834         0.454460   
     65. A(Fe  1,Fe  0,N   9)          138.1345         0.413389   
     66. A(S   7,Fe  0,N   9)           95.3338         0.399084   
     67. A(S   6,Fe  0,S   7)           84.4985         0.446519   
     68. A(S   6,Fe  0,S   8)           99.4346         0.501712   
     69. A(N   9,Fe  0,O  12)           74.4932         0.442108   
     70. A(Fe  1,Fe  0,S   7)           72.2018         0.405586   
     71. A(Fe  1,Fe  0,O  12)          144.1620         0.449512   
     72. A(S   7,Fe  0,O  12)           94.1430         0.433613   
     73. A(S   8,Fe  0,N   9)          167.6526         0.446954   
     74. A(S   6,Fe  0,O  12)          164.3942         0.496125   
     75. A(S   6,Fe  1,S   8)          104.6039         0.565693   
     76. A(S   6,Fe  1,N  44)          120.1748         0.511694   
     77. A(Fe  0,Fe  1,S   6)           52.1188         0.487802   
     78. A(S   6,Fe  1,N  35)          102.6787         0.494431   
     79. A(S   8,Fe  1,N  44)          119.0661         0.508594   
     80. A(N  35,Fe  1,N  44)          101.4466         0.445868   
     81. A(Fe  0,Fe  1,N  44)          139.3166         0.440033   
     82. A(Fe  0,Fe  1,N  35)          119.2038         0.425696   
     83. A(Fe  0,Fe  1,S   8)           52.7715         0.484877   
     84. A(S   8,Fe  1,N  35)          106.8538         0.491458   
     85. A(H   4,C   2,H   5)          108.4738         0.291634   
     86. A(C   3,C   2,H   4)          109.4579         0.334875   
     87. A(C   3,C   2,H   5)          109.3417         0.335595   
     88. A(O  13,C   3,C  14)          104.7585         0.365190   
     89. A(C   2,C   3,C  14)          113.8421         0.373845   
     90. A(C  14,C   3,H  26)          108.4151         0.323983   
     91. A(C   2,C   3,O  13)          114.4314         0.379126   
     92. A(O  13,C   3,H  26)          104.3872         0.328339   
     93. A(C   2,C   3,H  26)          110.3769         0.335839   
     94. A(Fe  0,S   6,Fe  1)           78.0689         0.539365   
     95. A(Fe  0,S   7,C  31)          105.9903         0.395355   
     96. A(Fe  0,S   8,Fe  1)           77.3451         0.525839   
     97. A(H  22,N   9,H  23)          108.7303         0.305426   
     98. A(C  10,N   9,H  23)          112.4479         0.340745   
     99. A(Fe  0,N   9,H  23)          106.4369         0.351123   
    100. A(C  10,N   9,H  22)          110.9988         0.340950   
    101. A(Fe  0,N   9,H  22)          105.7162         0.351337   
    102. A(Fe  0,N   9,C  10)          112.1688         0.394148   
    103. A(C  11,C  10,H  29)          106.6489         0.328958   
    104. A(N   9,C  10,H  29)          109.0859         0.333481   
    105. A(N   9,C  10,C  11)          110.4490         0.376644   
    106. A(H  29,C  10,H  30)          107.8126         0.293052   
    107. A(C  11,C  10,H  30)          109.5560         0.329077   
    108. A(N   9,C  10,H  30)          113.0516         0.333602   
    109. A(C  10,C  11,O  12)          115.5917         0.426023   
    110. A(O  12,C  11,O  19)          125.3601         0.502821   
    111. A(C  10,C  11,O  19)          119.0171         0.435655   
    112. A(C  11,O  12,H  24)          111.6343         0.199903   
    113. A(Fe  0,O  12,H  24)           92.0505         0.198531   
    114. A(Fe  0,O  12,C  11)          122.8090         0.486345   
    115. A(C   3,O  13,C  18)          108.2131         0.388235   
    116. A(C   3,C  14,O  15)          113.8879         0.380955   
    117. A(C  16,C  14,H  21)          112.1978         0.326515   
    118. A(O  15,C  14,H  21)          108.9975         0.341989   
    119. A(C   3,C  14,H  21)          110.0786         0.323972   
    120. A(O  15,C  14,C  16)          107.2328         0.384115   
    121. A(C   3,C  14,C  16)          104.4117         0.363097   
    122. A(C  14,O  15,H  24)          108.0678         0.358769   
    123. A(C  18,C  16,H  20)          109.1013         0.328363   
    124. A(O  17,C  16,H  20)          107.5063         0.343329   
    125. A(C  14,C  16,H  20)          109.5481         0.326692   
    126. A(O  17,C  16,C  18)          114.6767         0.387541   
    127. A(C  14,C  16,C  18)          101.9472         0.368012   
    128. A(C  14,C  16,O  17)          113.9042         0.385456   
    129. A(C  16,O  17,H  25)          106.6458         0.361170   
    130. A(H  27,C  18,H  28)          108.7072         0.291618   
    131. A(C  16,C  18,H  28)          113.3752         0.328407   
    132. A(O  13,C  18,H  28)          109.4016         0.343815   
    133. A(C  16,C  18,H  27)          109.6315         0.326797   
    134. A(O  13,C  18,H  27)          111.8070         0.342101   
    135. A(O  13,C  18,C  16)          103.9078         0.388056   
    136. A(O  12,H  24,O  15)          153.2620         0.173129   
    137. A(C   3,H  26,H  43)          128.1762         0.120286   
    138. A(H  33,C  31,H  34)          108.3433         0.293008   
    139. A(H  32,C  31,H  34)          108.4692         0.292588   
    140. A(S   7,C  31,H  34)          111.3613         0.340417   
    141. A(H  32,C  31,H  33)          109.6736         0.292778   
    142. A(S   7,C  31,H  33)          108.7261         0.340651   
    143. A(S   7,C  31,H  32)          110.2356         0.340133   
    144. A(C  36,N  35,C  39)          106.5245         0.441897   
    145. A(Fe  1,N  35,C  39)          136.1247         0.427613   
    146. A(Fe  1,N  35,C  36)          116.1960         0.445732   
    147. A(N  37,C  36,H  43)          124.7670         0.361196   
    148. A(N  35,C  36,H  43)          124.7277         0.367404   
    149. A(N  35,C  36,N  37)          110.5024         0.452490   
    150. A(C  38,N  37,H  41)          126.1607         0.359932   
    151. A(C  36,N  37,H  41)          125.6357         0.367382   
    152. A(C  36,N  37,C  38)          108.2033         0.434876   
    153. A(C  39,C  38,H  42)          132.1702         0.366591   
    154. A(N  37,C  38,H  42)          122.3270         0.354425   
    155. A(N  37,C  38,C  39)          105.5027         0.441049   
    156. A(C  38,C  39,H  40)          128.6901         0.366380   
    157. A(N  35,C  39,H  40)          122.0413         0.353574   
    158. A(N  35,C  39,C  38)          109.2664         0.440186   
    159. A(H  26,H  43,C  36)          111.7333         0.120656   
    160. A(C  45,N  44,C  47)          106.6115         0.441096   
    161. A(Fe  1,N  44,C  47)          131.2655         0.441601   
    162. A(Fe  1,N  44,C  45)          122.0918         0.460530   
    163. A(N  46,C  45,H  49)          125.1259         0.361390   
    164. A(N  44,C  45,H  49)          124.5028         0.366967   
    165. A(N  44,C  45,N  46)          110.3600         0.452555   
    166. A(C  48,N  46,H  52)          126.1694         0.359888   
    167. A(C  45,N  46,H  52)          125.5140         0.367705   
    168. A(C  45,N  46,C  48)          108.3165         0.435270   
    169. A(C  48,C  47,H  50)          128.9370         0.366776   
    170. A(N  44,C  47,H  50)          121.9220         0.353349   
    171. A(N  44,C  47,C  48)          109.1392         0.440130   
    172. A(C  47,C  48,H  51)          132.0972         0.366913   
    173. A(N  46,C  48,H  51)          122.3302         0.354428   
    174. A(N  46,C  48,C  47)          105.5726         0.441390   
    175. D(S   8,Fe  1,Fe  0,S   7)     89.0994         0.001527   
    176. D(N  35,Fe  1,Fe  0,S   7)    178.6661         0.001527   
    177. D(N  44,Fe  1,Fe  0,S   6)     94.1248         0.001527   
    178. D(N  44,Fe  1,Fe  0,O  12)    -75.5316         0.001527   
    179. D(N  44,Fe  1,Fe  0,N   9)     73.8776         0.001527   
    180. D(N  35,Fe  1,Fe  0,O  12)    107.0209         0.001527   
    181. D(S   8,Fe  1,Fe  0,O  12)     17.4543         0.001527   
    182. D(N  35,Fe  1,Fe  0,S   8)     89.5666         0.001527   
    183. D(S   6,Fe  1,Fe  0,O  12)   -169.6564         0.001527   
    184. D(S   6,Fe  1,Fe  0,S   8)    172.8893         0.001527   
    185. D(S   6,Fe  1,Fe  0,S   7)    -98.0113         0.001527   
    186. D(S   6,Fe  1,Fe  0,N   9)    -20.2472         0.001527   
    187. D(S   8,Fe  1,Fe  0,N   9)    166.8635         0.001527   
    188. D(N  44,Fe  1,Fe  0,S   8)    -92.9859         0.001527   
    189. D(S   8,Fe  1,Fe  0,S   6)   -172.8893         0.001527   
    190. D(N  35,Fe  1,Fe  0,N   9)   -103.5699         0.001527   
    191. D(N  35,Fe  1,Fe  0,S   6)    -83.3226         0.001527   
    192. D(N  44,Fe  1,Fe  0,S   7)     -3.8864         0.001527   
    193. D(H  26,C   3,C   2,H   4)    177.6558         0.015098   
    194. D(H  26,C   3,C   2,H   5)     58.9587         0.015098   
    195. D(C  14,C   3,C   2,H   4)    -60.1645         0.015098   
    196. D(C  14,C   3,C   2,H   5)   -178.8615         0.015098   
    197. D(O  13,C   3,C   2,H   4)     60.2774         0.015098   
    198. D(O  13,C   3,C   2,H   5)    -58.4197         0.015098   
    199. D(Fe  0,S   6,Fe  1,N  44)   -131.2271         0.001965   
    200. D(Fe  1,S   6,Fe  0,S   7)     71.2999         0.001791   
    201. D(Fe  1,S   6,Fe  0,S   8)     -5.5067         0.001791   
    202. D(Fe  1,S   6,Fe  0,N   9)    166.6462         0.001791   
    203. D(Fe  0,S   6,Fe  1,S   8)      5.8459         0.001965   
    204. D(Fe  0,S   6,Fe  1,N  35)    117.2975         0.001965   
    205. D(Fe  1,S   6,Fe  0,O  12)    156.9971         0.001791   
    206. D(C  31,S   7,Fe  0,O  12)     34.5973         0.001572   
    207. D(C  31,S   7,Fe  0,N   9)    109.3814         0.001572   
    208. D(C  31,S   7,Fe  0,S   8)    -60.1167         0.001572   
    209. D(C  31,S   7,Fe  0,S   6)   -161.0053         0.001572   
    210. D(C  31,S   7,Fe  0,Fe  1)   -111.5428         0.001572   
    211. D(Fe  1,S   8,Fe  0,O  12)   -169.8388         0.001739   
    212. D(Fe  0,S   8,Fe  1,S   6)     -5.7948         0.001937   
    213. D(Fe  1,S   8,Fe  0,N   9)   -134.8212         0.001739   
    214. D(Fe  1,S   8,Fe  0,S   7)    -76.7535         0.001739   
    215. D(Fe  0,S   8,Fe  1,N  44)    131.8586         0.001937   
    216. D(Fe  1,S   8,Fe  0,S   6)      5.5009         0.001739   
    217. D(Fe  0,S   8,Fe  1,N  35)   -114.2113         0.001937   
    218. D(H  23,N   9,Fe  0,O  12)   -105.8883         0.001945   
    219. D(H  23,N   9,Fe  0,S   8)   -142.2442         0.001945   
    220. D(H  23,N   9,Fe  0,S   7)    161.2803         0.001945   
    221. D(H  23,N   9,Fe  0,Fe  1)     92.1237         0.001945   
    222. D(H  22,N   9,Fe  0,S   8)    102.2366         0.001945   
    223. D(H  23,N   9,Fe  0,S   6)     76.7938         0.001945   
    224. D(H  22,N   9,Fe  0,S   7)     45.7611         0.001945   
    225. D(H  22,N   9,Fe  0,S   6)    -38.7254         0.001945   
    226. D(H  22,N   9,Fe  0,O  12)    138.5925         0.001945   
    227. D(H  22,N   9,Fe  0,Fe  1)    -23.3955         0.001945   
    228. D(C  10,N   9,Fe  0,O  12)     17.4856         0.001945   
    229. D(C  10,N   9,Fe  0,S   8)    -18.8703         0.001945   
    230. D(C  10,N   9,Fe  0,S   7)    -75.3458         0.001945   
    231. D(C  10,N   9,Fe  0,S   6)   -159.8323         0.001945   
    232. D(C  10,N   9,Fe  0,Fe  1)   -144.5024         0.001945   
    233. D(H  29,C  10,N   9,Fe  0)     93.9901         0.018377   
    234. D(C  11,C  10,N   9,H  22)   -140.9340         0.018377   
    235. D(C  11,C  10,N   9,H  23)     97.0107         0.018377   
    236. D(C  11,C  10,N   9,Fe  0)    -22.9191         0.018377   
    237. D(H  29,C  10,N   9,H  22)    -24.0248         0.018377   
    238. D(H  30,C  10,N   9,H  23)    -26.1446         0.018377   
    239. D(H  30,C  10,N   9,H  22)     95.9108         0.018377   
    240. D(H  30,C  10,N   9,Fe  0)   -146.0743         0.018377   
    241. D(H  29,C  10,N   9,H  23)   -146.0802         0.018377   
    242. D(O  19,C  11,C  10,H  30)    -40.3053         0.011760   
    243. D(O  19,C  11,C  10,H  29)     76.1219         0.011760   
    244. D(O  19,C  11,C  10,N   9)   -165.4699         0.011760   
    245. D(O  12,C  11,C  10,H  30)    141.6135         0.011760   
    246. D(O  12,C  11,C  10,H  29)   -101.9593         0.011760   
    247. D(O  12,C  11,C  10,N   9)     16.4490         0.011760   
    248. D(H  24,O  12,C  11,C  10)   -108.4803         0.071713   
    249. D(Fe  0,O  12,C  11,C  10)     -0.9332         0.071713   
    250. D(H  24,O  12,C  11,O  19)     73.5773         0.071713   
    251. D(H  24,O  12,Fe  0,N   9)    108.1598         0.002553   
    252. D(H  24,O  12,Fe  0,S   8)    -79.1562         0.002553   
    253. D(H  24,O  12,Fe  0,S   7)   -157.4455         0.002553   
    254. D(H  24,O  12,Fe  0,S   6)    118.1771         0.002553   
    255. D(H  24,O  12,Fe  0,Fe  1)    -92.4783         0.002553   
    256. D(C  11,O  12,Fe  0,N   9)     -9.3575         0.002553   
    257. D(C  11,O  12,Fe  0,S   8)    163.3265         0.002553   
    258. D(Fe  0,O  12,C  11,O  19)   -178.8756         0.071713   
    259. D(C  11,O  12,Fe  0,S   7)     85.0372         0.002553   
    260. D(C  11,O  12,Fe  0,S   6)      0.6598         0.002553   
    261. D(C  11,O  12,Fe  0,Fe  1)    150.0044         0.002553   
    262. D(C  18,O  13,C   3,H  26)    134.0333         0.013229   
    263. D(C  18,O  13,C   3,C  14)     20.1528         0.013229   
    264. D(C  18,O  13,C   3,C   2)   -105.2129         0.013229   
    265. D(H  21,C  14,C   3,H  26)     15.6661         0.010617   
    266. D(H  21,C  14,C   3,O  13)    126.6759         0.010617   
    267. D(H  21,C  14,C   3,C   2)   -107.5889         0.010617   
    268. D(C  16,C  14,C   3,H  26)   -104.9480         0.010617   
    269. D(C  16,C  14,C   3,O  13)      6.0619         0.010617   
    270. D(C  16,C  14,C   3,C   2)    131.7970         0.010617   
    271. D(O  15,C  14,C   3,H  26)    138.4143         0.010617   
    272. D(O  15,C  14,C   3,O  13)   -110.5758         0.010617   
    273. D(O  15,C  14,C   3,C   2)     15.1593         0.010617   
    274. D(H  24,O  15,C  14,H  21)     76.5499         0.021725   
    275. D(H  24,O  15,C  14,C  16)   -161.7726         0.021725   
    276. D(H  24,O  15,C  14,C   3)    -46.7881         0.021725   
    277. D(H  20,C  16,C  14,O  15)   -150.8690         0.011611   
    278. D(H  20,C  16,C  14,C   3)     87.9687         0.011611   
    279. D(C  18,C  16,C  14,H  21)   -146.6926         0.011611   
    280. D(C  18,C  16,C  14,O  15)     93.6588         0.011611   
    281. D(C  18,C  16,C  14,C   3)    -27.5035         0.011611   
    282. D(O  17,C  16,C  14,H  21)     89.2126         0.011611   
    283. D(O  17,C  16,C  14,O  15)    -30.4359         0.011611   
    284. D(H  20,C  16,C  14,H  21)    -31.2205         0.011611   
    285. D(O  17,C  16,C  14,C   3)   -151.5982         0.011611   
    286. D(H  25,O  17,C  16,H  20)    153.4205         0.022654   
    287. D(H  25,O  17,C  16,C  18)    -85.0769         0.022654   
    288. D(H  25,O  17,C  16,C  14)     31.8485         0.022654   
    289. D(H  28,C  18,C  16,H  20)     43.4838         0.012318   
    290. D(H  28,C  18,C  16,O  17)    -77.1429         0.012318   
    291. D(H  28,C  18,C  16,C  14)    159.2825         0.012318   
    292. D(H  27,C  18,C  16,H  20)    165.1620         0.012318   
    293. D(H  27,C  18,C  16,O  17)     44.5353         0.012318   
    294. D(H  27,C  18,C  16,C  14)    -79.0393         0.012318   
    295. D(O  13,C  18,C  16,H  20)    -75.1916         0.012318   
    296. D(O  13,C  18,C  16,O  17)    164.1817         0.012318   
    297. D(O  13,C  18,C  16,C  14)     40.6071         0.012318   
    298. D(H  28,C  18,O  13,C   3)   -159.7577         0.023019   
    299. D(H  27,C  18,O  13,C   3)     79.7671         0.023019   
    300. D(C  16,C  18,O  13,C   3)    -38.3886         0.023019   
    301. D(O  15,H  24,O  12,Fe  0)    153.4228         0.001518   
    302. D(O  12,H  24,O  15,C  14)   -139.9313         0.294972   
    303. D(O  15,H  24,O  12,C  11)    -79.8879         0.001518   
    304. D(H  43,H  26,C   3,C  14)   -136.7111         0.127386   
    305. D(H  43,H  26,C   3,O  13)    112.0293         0.127386   
    306. D(H  43,H  26,C   3,C   2)    -11.3911         0.127386   
    307. D(H  34,C  31,S   7,Fe  0)    -58.0321         0.003609   
    308. D(H  33,C  31,S   7,Fe  0)     61.2688         0.003609   
    309. D(H  32,C  31,S   7,Fe  0)   -178.4777         0.003609   
    310. D(C  39,N  35,Fe  1,S   8)    -94.1822         0.002041   
    311. D(C  39,N  35,Fe  1,S   6)    156.0512         0.002041   
    312. D(C  39,N  35,Fe  1,Fe  0)   -150.4808         0.002041   
    313. D(C  36,N  35,Fe  1,N  44)   -163.0811         0.002041   
    314. D(C  36,N  35,Fe  1,S   8)     71.5201         0.002041   
    315. D(C  36,N  35,Fe  1,S   6)    -38.2465         0.002041   
    316. D(C  39,N  35,Fe  1,N  44)     31.2166         0.002041   
    317. D(C  36,N  35,Fe  1,Fe  0)     15.2215         0.002041   
    318. D(H  43,C  36,N  35,C  39)    179.1632         0.048393   
    319. D(H  43,C  36,N  35,Fe  1)      9.4479         0.048393   
    320. D(N  37,C  36,N  35,C  39)     -0.2444         0.048393   
    321. D(N  37,C  36,N  35,Fe  1)   -169.9597         0.048393   
    322. D(H  41,N  37,C  36,H  43)      0.9629         0.038826   
    323. D(H  41,N  37,C  36,N  35)   -179.6298         0.038826   
    324. D(C  38,N  37,C  36,H  43)   -179.2497         0.038826   
    325. D(C  38,N  37,C  36,N  35)      0.1576         0.038826   
    326. D(H  42,C  38,N  37,H  41)     -0.1312         0.029928   
    327. D(H  42,C  38,N  37,C  36)   -179.9172         0.029928   
    328. D(C  39,C  38,N  37,H  41)    179.7844         0.029928   
    329. D(C  39,C  38,N  37,C  36)     -0.0016         0.029928   
    330. D(H  40,C  39,C  38,H  42)     -0.7821         0.036192   
    331. D(H  40,C  39,C  38,N  37)    179.3141         0.036192   
    332. D(N  35,C  39,C  38,H  42)    179.7571         0.036192   
    333. D(N  35,C  39,C  38,N  37)     -0.1467         0.036192   
    334. D(H  40,C  39,N  35,C  36)   -179.2611         0.029240   
    335. D(H  40,C  39,N  35,Fe  1)    -12.6254         0.029240   
    336. D(C  38,C  39,N  35,C  36)      0.2425         0.029240   
    337. D(C  38,C  39,N  35,Fe  1)    166.8782         0.029240   
    338. D(H  26,H  43,C  36,N  37)     68.6708         0.130554   
    339. D(H  26,H  43,C  36,N  35)   -110.6537         0.130554   
    340. D(C  36,H  43,H  26,C   3)    169.1058         0.001501   
    341. D(C  47,N  44,Fe  1,N  35)     15.0337         0.002279   
    342. D(C  47,N  44,Fe  1,S   8)    131.8403         0.002279   
    343. D(C  47,N  44,Fe  1,S   6)    -97.0998         0.002279   
    344. D(C  47,N  44,Fe  1,Fe  0)   -162.6931         0.002279   
    345. D(C  45,N  44,Fe  1,N  35)   -162.6463         0.002279   
    346. D(C  45,N  44,Fe  1,S   8)    -45.8397         0.002279   
    347. D(C  45,N  44,Fe  1,S   6)     85.2201         0.002279   
    348. D(C  45,N  44,Fe  1,Fe  0)     19.6268         0.002279   
    349. D(H  49,C  45,N  44,C  47)    178.6875         0.047894   
    350. D(H  49,C  45,N  44,Fe  1)     -3.1321         0.047894   
    351. D(N  46,C  45,N  44,C  47)     -0.1373         0.047894   
    352. D(N  46,C  45,N  44,Fe  1)    178.0431         0.047894   
    353. D(H  52,N  46,C  45,H  49)      1.2271         0.039292   
    354. D(H  52,N  46,C  45,N  44)   -179.9570         0.039292   
    355. D(C  48,N  46,C  45,H  49)   -178.6661         0.039292   
    356. D(C  48,N  46,C  45,N  44)      0.1498         0.039292   
    357. D(H  50,C  47,N  44,C  45)   -179.4750         0.028905   
    358. D(H  50,C  47,N  44,Fe  1)      2.5759         0.028905   
    359. D(C  48,C  47,N  44,C  45)      0.0740         0.028905   
    360. D(C  48,C  47,N  44,Fe  1)   -177.8750         0.028905   
    361. D(H  51,C  48,C  47,H  50)     -0.3989         0.036563   
    362. D(H  51,C  48,C  47,N  44)   -179.9068         0.036563   
    363. D(N  46,C  48,C  47,H  50)    179.5226         0.036563   
    364. D(N  46,C  48,C  47,N  44)      0.0148         0.036563   
    365. D(H  51,C  48,N  46,H  52)     -0.0586         0.029903   
    366. D(H  51,C  48,N  46,C  45)    179.8337         0.029903   
    367. D(C  47,C  48,N  46,H  52)   -179.9897         0.029903   
    368. D(C  47,C  48,N  46,C  45)     -0.0974         0.029903   
    -----------------------------------------------------------------

Number of atoms                         .... 53
Number of degrees of freedom            .... 368

         *************************************************************
         *                GEOMETRY OPTIMIZATION CYCLE   1            *
         *************************************************************
---------------------------------
CARTESIAN COORDINATES (ANGSTROEM)
---------------------------------
  Fe    -0.696030   -1.139136    0.446169
  Fe    -2.170559   -3.418522    1.672207
  C      2.236649   -1.746876    0.619511
  C      2.752020   -2.980903   -0.009410
  H      2.769380   -0.885403    0.218455
  H      2.409247   -1.790035    1.690718
  S     -1.167279   -1.619938    2.752937
  S     -3.241437   -0.613383    0.295764
  S     -1.572686   -3.165699   -0.570411
  N     -0.094290    0.913920    0.991905
  C     -0.134900    1.816074   -0.143030
  C     -0.023459    1.041836   -1.437878
  O     -0.241208   -0.196087   -1.352207
  O      4.188614   -3.226946    0.217062
  C      2.584737   -3.016321   -1.536899
  O      2.290930   -1.762885   -2.107611
  C      3.952499   -3.440515   -2.058549
  O      4.244935   -2.959701   -3.343499
  C      4.875172   -2.933717   -0.968114
  O      0.228627    1.647876   -2.473316
  H      4.007179   -4.522368   -2.094993
  H      1.805684   -3.720000   -1.809992
  H     -0.736816    1.204825    1.705665
  H      0.823718    0.843776    1.393438
  H      1.592688   -1.353093   -1.585417
  H      3.805956   -2.111949   -3.425839
  H      2.260049   -3.852144    0.409463
  H      5.032829   -1.860378   -1.090542
  H      5.839627   -3.427631   -0.957049
  H     -1.095392    2.317633   -0.162837
  H      0.635432    2.576710   -0.107964
  C     -3.662935   -0.690321   -1.460614
  H     -4.712343   -0.453648   -1.605606
  H     -3.461345   -1.690778   -1.823058
  H     -3.070052    0.008375   -2.039976
  N     -1.056454   -5.110137    2.431425
  C      0.227341   -4.927856    2.597959
  N      0.834237   -6.087539    2.857846
  C     -0.111677   -7.074504    2.855477
  C     -1.282846   -6.452348    2.586831
  H     -2.258645   -6.878058    2.488819
  H      1.811722   -6.207963    3.027700
  H      0.130412   -8.098184    3.041333
  H      0.723442   -3.981965    2.525719
  N     -4.152668   -3.973325    2.149909
  C     -5.188452   -3.405674    1.586593
  N     -6.317735   -3.960687    2.026437
  C     -4.644022   -4.936549    2.993545
  C     -5.994142   -4.938400    2.925614
  H     -5.131126   -2.596349    0.887247
  H     -4.000632   -5.548405    3.588318
  H     -6.735172   -5.527321    3.420441
  H     -7.240695   -3.700703    1.744387

----------------------------
CARTESIAN COORDINATES (A.U.)
----------------------------
  NO LB      ZA    FRAG     MASS         X           Y           Z
   0 Fe   26.0000    0    55.850   -1.315306   -2.152656    0.843138
   1 Fe   26.0000    0    55.850   -4.101762   -6.460070    3.160012
   2 C     6.0000    0    12.011    4.226654   -3.301117    1.170706
   3 C     6.0000    0    12.011    5.200564   -5.633090   -0.017783
   4 H     1.0000    0     1.008    5.233370   -1.673170    0.412821
   5 H     1.0000    0     1.008    4.552818   -3.382675    3.194994
   6 S    16.0000    0    32.060   -2.205837   -3.061239    5.202297
   7 S    16.0000    0    32.060   -6.125428   -1.159125    0.558912
   8 S    16.0000    0    32.060   -2.971946   -5.982305   -1.077921
   9 N     7.0000    0    14.007   -0.178182    1.727058    1.874429
  10 C     6.0000    0    12.011   -0.254923    3.431882   -0.270287
  11 C     6.0000    0    12.011   -0.044330    1.968785   -2.717196
  12 O     8.0000    0    15.999   -0.455818   -0.370551   -2.555301
  13 O     8.0000    0    15.999    7.915333   -6.098045    0.410187
  14 C     6.0000    0    12.011    4.884444   -5.700020   -2.904318
  15 O     8.0000    0    15.999    4.329230   -3.331371   -3.982808
  16 C     6.0000    0    12.011    7.469142   -6.501631   -3.890094
  17 O     8.0000    0    15.999    8.021765   -5.593023   -6.318298
  18 C     6.0000    0    12.011    9.212739   -5.543922   -1.829470
  19 O     8.0000    0    15.999    0.432043    3.114035   -4.673890
  20 H     1.0000    0     1.008    7.572471   -8.546037   -3.958963
  21 H     1.0000    0     1.008    3.412249   -7.029782   -3.420390
  22 H     1.0000    0     1.008   -1.392381    2.276789    3.223240
  23 H     1.0000    0     1.008    1.556601    1.594506    2.633217
  24 H     1.0000    0     1.008    3.009744   -2.556975   -2.996003
  25 H     1.0000    0     1.008    7.192214   -3.991004   -6.473898
  26 H     1.0000    0     1.008    4.270873   -7.279497    0.773773
  27 H     1.0000    0     1.008    9.510668   -3.515604   -2.060826
  28 H     1.0000    0     1.008   11.035295   -6.477284   -1.808561
  29 H     1.0000    0     1.008   -2.069990    4.379691   -0.307718
  30 H     1.0000    0     1.008    1.200792    4.869277   -0.204023
  31 C     6.0000    0    12.011   -6.921944   -1.304518   -2.760161
  32 H     1.0000    0     1.008   -8.905038   -0.857270   -3.034155
  33 H     1.0000    0     1.008   -6.540993   -3.195107   -3.445079
  34 H     1.0000    0     1.008   -5.801558    0.015827   -3.854995
  35 N     7.0000    0    14.007   -1.996408   -9.656760    4.594727
  36 C     6.0000    0    12.011    0.429612   -9.312298    4.909430
  37 N     7.0000    0    14.007    1.576479  -11.503782    5.400546
  38 C     6.0000    0    12.011   -0.211039  -13.368875    5.396070
  39 C     6.0000    0    12.011   -2.424227  -12.193171    4.888401
  40 H     1.0000    0     1.008   -4.268221  -12.997647    4.703186
  41 H     1.0000    0     1.008    3.423658  -11.731350    5.721524
  42 H     1.0000    0     1.008    0.246443  -15.303350    5.747286
  43 H     1.0000    0     1.008    1.367108   -7.524824    4.772918
  44 N     7.0000    0    14.007   -7.847405   -7.508497    4.062740
  45 C     6.0000    0    12.011   -9.804754   -6.435792    2.998227
  46 N     7.0000    0    14.007  -11.938789   -7.484613    3.829410
  47 C     6.0000    0    12.011   -8.775930   -9.328725    5.656980
  48 C     6.0000    0    12.011  -11.327287   -9.332224    5.528609
  49 H     1.0000    0     1.008   -9.696422   -4.906389    1.676653
  50 H     1.0000    0     1.008   -7.560098  -10.484967    6.780938
  51 H     1.0000    0     1.008  -12.727631  -10.445124    6.463697
  52 H     1.0000    0     1.008  -13.682930   -6.993315    3.296414

--------------------------------
INTERNAL COORDINATES (ANGSTROEM)
--------------------------------
 Fe     0   0   0     0.000000000000     0.00000000     0.00000000
 Fe     1   0   0     2.978758739087     0.00000000     0.00000000
 C      1   2   0     2.999999999057   107.76462756     0.00000000
 C      3   1   2     1.477826241523   119.04393686    58.15276199
 H      3   1   2     1.089395819345   107.25192328   183.00275054
 H      3   1   2     1.085880950242   102.73441270   297.22938898
 S      2   1   3     2.325823217720    52.11877529    82.00589691
 S      1   2   3     2.603485526020    72.20182170   179.98282186
 S      2   1   3     2.334674520933    52.77153873   269.11660942
 N      1   2   3     2.207930425351   138.13445220   257.74688784
 C     10   1   2     1.450381964416   112.16881076   215.49759522
 C     11  10   1     1.512777330578   110.44898379   337.08093253
 O     12  11  10     1.259844762420   115.59173363    16.44897582
 O      4   3   1     1.475001620273   114.43135877   184.05487613
 C      4   3   1     1.537029110656   113.84207629    63.61302462
 O     15   4   3     1.408238390860   113.88785284    15.15930960
 C     15   4   3     1.524084955113   104.41171236   131.79701424
 O     17  15   4     1.402782214002   113.90417419   208.40179417
 C     14   4   3     1.400709146561   108.21311598   254.78714748
 O     12  11  10     1.225954398652   119.01707025   194.53014315
 H     17  15   4     1.083846756011   109.54814562    87.96867270
 H     15   4   3     1.084742843529   110.07859789   252.41107948
 H     10   1   2     1.003453811123   105.71624919   336.60452160
 H     10   1   2     1.004433477382   106.43690341    92.12374985
 H     16  15   4     0.963409886396   108.06782547   313.21185372
 H     18  17  15     0.958209873641   106.64581527    31.84852934
 H      4   3   1     1.084689507758   110.37688504   301.43325889
 H     19  14   4     1.091742963685   111.80698355    79.76711664
 H     19  14   4     1.083626745295   109.40164883   200.24226757
 H     11  10   1     1.083742971845   109.08591766    93.99006155
 H     11  10   1     1.083147268185   113.05158348   213.92567468
 C      8   1   2     1.807883518668   105.99027790   248.45717023
 H     32   8   1     1.085492725908   110.23564909   181.52231421
 H     32   8   1     1.083013059304   108.72606441    61.26881808
 H     32   8   1     1.084134014122   111.36132734   301.96788905
 N      2   1   3     2.163147035731   119.20379053   358.68325043
 C     36   2   1     1.307321436928   116.19596324    15.22148447
 N     37  36   2     1.334439829686   110.50244405   190.04033560
 C     38  37  36     1.367061813212   108.20327529     0.15762884
 C     39  38  37     1.353101744431   105.50273093     0.00000000
 H     40  39  38     1.069121197491   128.69005874   179.31411890
 H     38  37  36     0.999414101698   125.63566294   180.37024020
 H     39  38  37     1.068208678918   122.32700281   180.08278249
 H     37  36   2     1.070534273595   124.72765114     9.44791544
 N      2   1   3     2.112998202343   139.31658189   176.13073136
 C     45   2   1     1.308587923948   122.09178640    19.62680578
 N     46  45   2     1.332959512581   110.35995204   178.04311150
 C     45   2   1     1.371477014255   131.26546329   197.30685277
 C     48  45   2     1.351828929436   109.13923344   182.12495203
 H     46  45   2     1.071157988413   124.50276158   356.86789624
 H     48  45   2     1.068679104164   121.92198654     2.57594952
 H     49  48  45     1.068085735525   132.09717715   180.09321186
 H     47  46  45     0.999498938626   125.51399779   180.04296148

---------------------------
INTERNAL COORDINATES (A.U.)
---------------------------
 Fe     0   0   0     0.000000000000     0.00000000     0.00000000
 Fe     1   0   0     5.629038235899     0.00000000     0.00000000
 C      1   2   0     5.669178399983   107.76462756     0.00000000
 C      3   1   2     2.792686870000   119.04393686    58.15276199
 H      3   1   2     2.058659750000   107.25192328   183.00275054
 H      3   1   2     2.052017610000   102.73441270   297.22938898
 S      2   1   3     4.395168917407    52.11877529    82.00589691
 S      1   2   3     4.919874637806    72.20182170   179.98282186
 S      2   1   3     4.411895456407    52.77153873   269.11660942
 N      1   2   3     4.172383826665   138.13445220   257.74688784
 C     10   1   2     2.740824702325   112.16881076   215.49759522
 C     11  10   1     2.858734856397   110.44898379   337.08093253
 O     12  11  10     2.380761572229   115.59173363    16.44897582
 O      4   3   1     2.787349109407   114.43135877   184.05487613
 C      4   3   1     2.904564079005   113.84207629    63.61302462
 O     15   4   3     2.661184890000   113.88785284    15.15930960
 C     15   4   3     2.880103169993   104.41171236   131.79701424
 O     17  15   4     2.650874210000   113.90417419   208.40179417
 C     14   4   3     2.646956680279   108.21311598   254.78714748
 O     12  11  10     2.316718066128   119.01707025   194.53014315
 H     17  15   4     2.048173540000   109.54814562    87.96867270
 H     15   4   3     2.049866900000   110.07859789   252.41107948
 H     10   1   2     1.896252891061   105.71624919   336.60452160
 H     10   1   2     1.898104191993   106.43690341    92.12374985
 H     16  15   4     1.820580840000   108.06782547   313.21185372
 H     18  17  15     1.810754240000   106.64581527    31.84852934
 H      4   3   1     2.049766110000   110.37688504   301.43325889
 H     19  14   4     2.063095210000   111.80698355    79.76711664
 H     19  14   4     2.047757780000   109.40164883   200.24226757
 H     11  10   1     2.047977416348   109.08591766    93.99006155
 H     11  10   1     2.046851699575   113.05158348   213.92567468
 C      8   1   2     3.416404732313   105.99027790   248.45717023
 H     32   8   1     2.051283972329   110.23564909   181.52231421
 H     32   8   1     2.046598081545   108.72606441    61.26881808
 H     32   8   1     2.048716379160   111.36132734   301.96788905
 N      2   1   3     4.087755484935   119.20379053   358.68325043
 C     36   2   1     2.470479484799   116.19596324    15.22148447
 N     37  36   2     2.521725820303   110.50244405   190.04033560
 C     38  37  36     2.583372435112   108.20327529     0.15762884
 C     39  38  37     2.556991728307   105.50273093     0.00000000
 H     40  39  38     2.020346267227   128.69005874   179.31411890
 H     38  37  36     1.888618946589   125.63566294   180.37024020
 H     39  38  37     2.018621857033   122.32700281   180.08278249
 H     37  36   2     2.023016594071   124.72765114     9.44791544
 N      2   1   3     3.992987923896   139.31658189   176.13073136
 C     45   2   1     2.472872798418   122.09178640    19.62680578
 N     46  45   2     2.518928426384   110.35995204   178.04311150
 C     45   2   1     2.591715955910   131.26546329   197.30685277
 C     48  45   2     2.554586456547   109.13923344   182.12495203
 H     46  45   2     2.024195244262   124.50276158   356.86789624
 H     48  45   2     2.019510831914   121.92198654     2.57594952
 H     49  48  45     2.018389527690   132.09717715   180.09321186
 H     47  46  45     1.888779265148   125.51399779   180.04296148

---------------------
BASIS SET INFORMATION
---------------------
There are 7 groups of distinct atoms

 Group   1 Type Fe  : 17s11p5d1f contracted to 17s7p3d1f pattern {11111111111111111/3311111/311/1}
 Group   2 Type C   : 12s8p2d1f contracted to 8s5p2d1f pattern {51111111/41111/11/1}
 Group   3 Type C   : 10s5p1d contracted to 6s2p1d pattern {511111/41/1}
 Group   4 Type H   : 6s1p contracted to 4s1p pattern {3111/1}
 Group   5 Type S   : 14s9p3d1f contracted to 5s5p2d1f pattern {73211/51111/21/1}
 Group   6 Type N   : 10s5p1d contracted to 6s2p1d pattern {511111/41/1}
 Group   7 Type O   : 10s5p1d contracted to 6s2p1d pattern {511111/41/1}

Atom   0Fe   basis set group =>   1
Atom   1Fe   basis set group =>   1
Atom   2C    basis set group =>   2
Atom   3C    basis set group =>   3
Atom   4H    basis set group =>   4
Atom   5H    basis set group =>   4
Atom   6S    basis set group =>   5
Atom   7S    basis set group =>   5
Atom   8S    basis set group =>   5
Atom   9N    basis set group =>   6
Atom  10C    basis set group =>   3
Atom  11C    basis set group =>   3
Atom  12O    basis set group =>   7
Atom  13O    basis set group =>   7
Atom  14C    basis set group =>   3
Atom  15O    basis set group =>   7
Atom  16C    basis set group =>   3
Atom  17O    basis set group =>   7
Atom  18C    basis set group =>   3
Atom  19O    basis set group =>   7
Atom  20H    basis set group =>   4
Atom  21H    basis set group =>   4
Atom  22H    basis set group =>   4
Atom  23H    basis set group =>   4
Atom  24H    basis set group =>   4
Atom  25H    basis set group =>   4
Atom  26H    basis set group =>   4
Atom  27H    basis set group =>   4
Atom  28H    basis set group =>   4
Atom  29H    basis set group =>   4
Atom  30H    basis set group =>   4
Atom  31C    basis set group =>   3
Atom  32H    basis set group =>   4
Atom  33H    basis set group =>   4
Atom  34H    basis set group =>   4
Atom  35N    basis set group =>   6
Atom  36C    basis set group =>   3
Atom  37N    basis set group =>   6
Atom  38C    basis set group =>   3
Atom  39C    basis set group =>   3
Atom  40H    basis set group =>   4
Atom  41H    basis set group =>   4
Atom  42H    basis set group =>   4
Atom  43H    basis set group =>   4
Atom  44N    basis set group =>   6
Atom  45C    basis set group =>   3
Atom  46N    basis set group =>   6
Atom  47C    basis set group =>   3
Atom  48C    basis set group =>   3
Atom  49H    basis set group =>   4
Atom  50H    basis set group =>   4
Atom  51H    basis set group =>   4
Atom  52H    basis set group =>   4


           ************************************************************
           *        Program running with 32 parallel MPI-processes    *
           *              working on a common directory               *
           ************************************************************
------------------------------------------------------------------------------
                           ORCA GTO INTEGRAL CALCULATION
------------------------------------------------------------------------------

                         BASIS SET STATISTICS AND STARTUP INFO

 # of primitive gaussian shells          ...  708
 # of primitive gaussian functions       ... 1312
 # of contracted shells                  ...  438
 # of contracted basis functions         ...  830
 Highest angular momentum                ...    3
 Maximum contraction depth               ...    7
 Integral package used                   ... LIBINT
 Integral threshhold            Thresh   ...  1.000e-12
 Primitive cut-off              TCut     ...  1.000e-14


------------------------------ INTEGRAL EVALUATION ----------------------------


 * One electron integrals 
 Pre-screening matrix                    ... done
 Shell pair data                         ... done (   0.025 sec)



           ************************************************************
           *        Program running with 32 parallel MPI-processes    *
           *              working on a common directory               *
           ************************************************************
-------------------------------------------------------------------------------
                                 ORCA SCF
-------------------------------------------------------------------------------

------------
SCF SETTINGS
------------
Hamiltonian:
 Density Functional     Method          .... DFT(GTOs)
 Exchange Functional    Exchange        .... B88
   X-Alpha parameter    XAlpha          ....  0.666667
   Becke's b parameter  XBeta           ....  0.004200
 Correlation Functional Correlation     .... LYP
 Gradients option       PostSCFGGA      .... off
 Hybrid DFT is turned on
   Fraction HF Exchange ScalHFX         ....  0.500000
   Scaling of DF-GGA-X  ScalDFX         ....  0.500000
   Scaling of DF-GGA-C  ScalDFC         ....  1.000000
   Scaling of DF-LDA-C  ScalLDAC        ....  1.000000
   Perturbative correction              ....  0.000000
   Density functional embedding theory  .... OFF


General Settings:
 Integral files         IntName         .... 5-dAdo-2minusBHandHLYP_3A_sbdft_aab
 Hartree-Fock type      HFTyp           .... UHF
 Total Charge           Charge          ....   -2
 Multiplicity           Mult            ....   10
 Number of Electrons    NEL             ....  285
 Basis Dimension        Dim             ....  830
 Nuclear Repulsion      ENuc            ....   4835.0244392778 Eh

Convergence Acceleration:
 DIIS                   CNVDIIS         .... on
   Start iteration      DIISMaxIt       ....     0
   Startup error        DIISStart       ....  0.200000
   # of expansion vecs  DIISMaxEq       ....    15
   Bias factor          DIISBfac        ....   1.050
   Max. coefficient     DIISMaxC        ....  10.000
 Newton-Raphson         CNVNR           .... off
 SOSCF                  CNVSOSCF        .... off
 Level Shifting         CNVShift        .... on
   Level shift para.    LevelShift      ....    0.2500
   Turn off err/grad.   ShiftErr        ....    0.0000
 Zerner damping         CNVZerner       .... off
 Static damping         CNVDamp         .... on
   Fraction old density DampFac         ....    0.9200
   Max. Damping (<1)    DampMax         ....    0.9800
   Min. Damping (>=0)   DampMin         ....    0.0000
   Turn off err/grad.   DampErr         ....    0.0030
 Fernandez-Rico         CNVRico         .... off

SCF Procedure:
 Maximum # iterations   MaxIter         ....  3000
 SCF integral mode      SCFMode         .... Direct
   Integral package                     .... LIBINT
 Reset frequency        DirectResetFreq ....     1
 Integral Threshold     Thresh          ....  1.000e-12 Eh
 Primitive CutOff       TCut            ....  1.000e-14 Eh

Convergence Tolerance:
 Convergence Check Mode ConvCheckMode   .... Total+1el-Energy
 Convergence forced     ConvForced      .... 1
 Energy Change          TolE            ....  1.000e-09 Eh
 1-El. energy change                    ....  1.000e-06 Eh
 DIIS Error             TolErr          ....  1.000e-08


The Flip-Spin feature is operative for generating broken symmetry solutions
 C 2
We will now do a high-spin calculation with                 Ms=  4.5
and then try to converge to the broken symmetry state with Ms=  4.5


Diagonalization of the overlap matrix:
Smallest eigenvalue                        ... 2.249e-04
Time for diagonalization                   ...    0.381 sec
Threshold for overlap eigenvalues          ... 1.000e-08
Number of eigenvalues below threshold      ... 0
Time for construction of square roots      ...    0.502 sec
Total time needed                          ...    0.889 sec

-------------------
DFT GRID GENERATION
-------------------

General Integration Accuracy     IntAcc      ...  5.670
Radial Grid Type                 RadialGrid  ... Gauss-Chebyshev
Angular Grid (max. acc.)         AngularGrid ... Lebedev-770
Angular grid pruning method      GridPruning ... 3 (G Style)
Weight generation scheme         WeightScheme... Becke
Basis function cutoff            BFCut       ...    1.0000e-12
Integration weight cutoff        WCut        ...    1.0000e-14
Grids for H and He will be reduced by one unit

SpecialGrid => Setting IntAcc for atom type =  26 to   7.0000
SpecialGrid => Setting IntAcc for atom type =  26 to   7.0000
# of grid points (after initial pruning)     ... 1201996 (   0.0 sec)
# of grid points (after weights+screening)   ... 1036440 (   1.4 sec)
nearest neighbour list constructed           ...    0.0 sec
Grid point re-assignment to atoms done       ...    0.5 sec
Grid point division into batches done        ...   25.2 sec
Reduced shell lists constructed in   26.5 sec

Total number of grid points                  ...  1036440
Total number of batches                      ...    16221
Average number of points per batch           ...       63
Average number of grid points per atom       ...    19555
Average number of shells per batch           ...   177.54 (40.53%)
Average number of basis functions per batch  ...   394.99 (47.59%)
Average number of large shells per batch     ...   121.16 (68.24%)
Average number of large basis fcns per batch ...   275.32 (69.70%)
Maximum spatial batch extension              ...   3.42,  2.66,  3.53 au
Average spatial batch extension              ...   0.02,  0.02,  0.02 au

Time for grid setup =   29.130 sec

------------------------------
INITIAL GUESS: MODEL POTENTIAL
------------------------------
Loading Hartree-Fock densities                     ... done
Calculating cut-offs                               ... done
Setting up the integral package                    ... done
Initializing the effective Hamiltonian             ... done
Starting the Coulomb interaction                   ... done (   0.2 sec)
Reading the grid                                   ... done
Mapping shells                                     ... done
Starting the XC term evaluation                    ... done (   1.4 sec)
  promolecular density results
     # of electrons  =    282.988255357
     EX              =   -337.068247505
     EC              =    -10.689378817
     EX+EC           =   -347.757626323
Transforming the Hamiltonian                       ... done (   0.6 sec)
Diagonalizing the Hamiltonian                      ... done (   0.4 sec)
Back transforming the eigenvectors                 ... done (   0.1 sec)
Now organizing SCF variables                       ... done
                      ------------------
                      INITIAL GUESS DONE (  32.3 sec)
                      ------------------

--------------------
CPCM SOLVATION MODEL
--------------------
CPCM parameters:
  Epsilon                                         ...      20.0000
  Refrac                                          ...       1.0000
  Rsolv                                           ...       1.3000
  Surface type                                    ...    GEPOL SES
  Epsilon function type                           ...         CPCM
Radii:
 Radius for Fe used is    4.2009 Bohr (=   2.2230 Ang.)
 Radius for C  used is    3.7795 Bohr (=   2.0000 Ang.)
 Radius for H  used is    2.4566 Bohr (=   1.3000 Ang.)
 Radius for S  used is    4.0818 Bohr (=   2.1600 Ang.)
 Radius for N  used is    3.4582 Bohr (=   1.8300 Ang.)
 Radius for O  used is    3.2503 Bohr (=   1.7200 Ang.)
Calculating surface                               ...        done! (  0.2s)
GEPOL surface points                              ...         2010
GEPOL Volume                                      ...    3685.1557
GEPOL Surface-area                                ...    1608.0399
Calculating surface distance matrix               ...        done! (  0.0s)
Performing Cholesky decomposition & store         ...        done! (  1.7s)
Overall time for CPCM initialization              ...                 2.0s
--------------
SCF ITERATIONS
--------------
ITER       Energy         Delta-E        Max-DP      RMS-DP      [F,P]     Damp
  0  -4918.4619705427   0.000000000000 0.03931646  0.00019792  0.9268769 0.9200
  1  -4918.6140019043  -0.152031361668 0.07509353  0.00027912  0.8528593 0.9200
                               ***Turning on DIIS***
  2  -4918.7457450087  -0.131743104359 0.07820638  0.00027701  0.7847722 0.9200
  3  -4918.8531685523  -0.107423543613 0.04958542  0.00019693  0.7221546 0.9200
  4  -4918.9425646826  -0.089396130303 0.01924630  0.00012511  0.6645585 0.9200
  5  -4919.0163520475  -0.073787364876 0.02150024  0.00009774  0.6115455 0.9200
  6  -4919.0781967020  -0.061844654556 0.02572966  0.00008804  0.5627178 0.9200
  7  -4919.1325532863  -0.054356584217 0.02609102  0.00008218  0.5177421 0.9200
  8  -4919.1818993962  -0.049346109974 0.02499127  0.00007722  0.4763361 0.9200
  9  -4919.2272201975  -0.045320801220 0.02341736  0.00007260  0.4382318 0.9200
 10  -4919.2689290198  -0.041708822314 0.02175091  0.00006817  0.4031724 0.9200
 11  -4919.3072970351  -0.038368015371 0.02013120  0.00006390  0.3709165 0.9200
 12  -4919.3425738990  -0.035276863893 0.01860423  0.00005981  0.3412404 0.9200
 13  -4919.3750042939  -0.032430394909 0.01718134  0.00005590  0.3139404 0.9200
 14  -4919.4048228202  -0.029818526275 0.01586158  0.00005221  0.2888262 0.9200
 15  -4919.4322488770  -0.027426056740 0.01463989  0.00004875  0.2657213 0.9200
 16  -4919.4574845087  -0.025235631746 0.01351006  0.00004550  0.2444649 0.9200
 17  -4919.4807143031  -0.023229794415 0.01239755  0.00004257  0.2249092 0.9200
 18  -4919.5021459916  -0.021431688466 0.01139190  0.00003991  0.2069171 0.9200
 19  -4919.5218934527  -0.019747461104 0.01051477  0.00003747  0.1903653 0.9200
 20  -4919.5400696674  -0.018176214737 0.00973440  0.00003521  0.1751389 0.9200
 21  -4919.5568006084  -0.016730940992 0.00901790  0.00003310  0.1611314 0.9200
 22  -4919.5722115508  -0.015410942361 0.00834781  0.00003114  0.1482445 0.9200
 23  -4919.5864176692  -0.014206118456 0.00771833  0.00002933  0.1363884 0.9200
 24  -4919.5995217564  -0.013104087199 0.00712861  0.00002767  0.1254804 0.9200
 25  -4919.6116153568  -0.012093600409 0.00687257  0.00002615  0.1154450 0.9200
 26  -4919.6227806540  -0.011165297148 0.00670271  0.00002476  0.1062123 0.9200
 27  -4919.6330920683  -0.010311414312 0.00652587  0.00002350  0.0977183 0.9200
 28  -4919.6426174257  -0.009525357429 0.00634495  0.00002235  0.0899038 0.9200
 29  -4919.6514187956  -0.008801369891 0.00616197  0.00002130  0.0827146 0.9200
 30  -4919.6595531222  -0.008134326604 0.00597842  0.00002034  0.0761005 0.9200
 31  -4919.6670727234  -0.007519601135 0.00579539  0.00001947  0.0700156 0.9200
 32  -4919.6740257179  -0.006952994554 0.00561369  0.00001868  0.0644174 0.9200
 33  -4919.6804563953  -0.006430677375 0.00543419  0.00001795  0.0592671 0.9200
 34  -4919.6864054864  -0.005949091103 0.00525754  0.00001729  0.0545288 0.9200
 35  -4919.6919105095  -0.005505023057 0.00508412  0.00001668  0.0501696 0.9200
 36  -4919.6970060523  -0.005095542808 0.00491409  0.00001613  0.0461591 0.9200
 37  -4919.7017240110  -0.004717958743 0.00474764  0.00001562  0.0424694 0.9200
 38  -4919.7060937842  -0.004369773193 0.00458493  0.00001515  0.0390748 0.9200
 39  -4919.7101424570  -0.004048672843 0.00442615  0.00001472  0.0359517 0.9200
 40  -4919.7138949765  -0.003752519477 0.00427147  0.00001432  0.0330785 0.9200
 41  -4919.7173743244  -0.003479347927 0.00412103  0.00001394  0.0304350 0.9200
 42  -4919.7206016710  -0.003227346529 0.00397491  0.00001360  0.0280030 0.9200
 43  -4919.7235965193  -0.002994848335 0.00383318  0.00001327  0.0257654 0.9200
 44  -4919.7263768409  -0.002780321639 0.00369584  0.00001297  0.0237069 0.9200
 45  -4919.7289591918  -0.002582350901 0.00356288  0.00001269  0.0218129 0.9200
 46  -4919.7313588302  -0.002399638403 0.00343428  0.00001241  0.0200705 0.9200
 47  -4919.7335898099  -0.002230979630 0.00330997  0.00001216  0.0184673 0.9200
 48  -4919.7356650776  -0.002075267733 0.00318991  0.00001191  0.0169924 0.9200
 49  -4919.7375965612  -0.001931483551 0.00307403  0.00001168  0.0156354 0.9200
 50  -4919.7393952446  -0.001798683440 0.00296224  0.00001146  0.0143869 0.9200
 51  -4919.7410712448  -0.001676000178 0.00285448  0.00001125  0.0132382 0.9200
 52  -4919.7426338757  -0.001562630964 0.00275067  0.00001104  0.0121814 0.9200
 53  -4919.7440917118  -0.001457836045 0.00265072  0.00001084  0.0112090 0.9200
 54  -4919.7454526469  -0.001360935135 0.00255457  0.00001065  0.0103144 0.9200
 55  -4919.7467239465  -0.001271299588 0.00246213  0.00001047  0.0094912 0.9200
 56  -4919.7479122939  -0.001188347414 0.00237335  0.00001030  0.0087339 0.9200
 57  -4919.7490238416  -0.001111547691 0.00228815  0.00001013  0.0080370 0.9200
 58  -4919.7500642440  -0.001040402350 0.00220648  0.00000997  0.0073959 0.9200
 59  -4919.7510387036  -0.000974459650 0.00212827  0.00000982  0.0068059 0.9200
 60  -4919.7519520028  -0.000913299225 0.00205347  0.00000968  0.0062631 0.9200
 61  -4919.7528085354  -0.000856532522 0.00198203  0.00000955  0.0057637 0.9200
 62  -4919.7536123364  -0.000803801043 0.00191389  0.00000942  0.0053041 0.9200
 63  -4919.7543671121  -0.000754775731 0.00184900  0.00000931  0.0048812 0.9200
 64  -4919.7550762620  -0.000709149816 0.00178729  0.00000920  0.0044920 0.9200
 65  -4919.7557429003  -0.000666638393 0.00172871  0.00000911  0.0041339 0.9200
 66  -4919.7563698777  -0.000626977375 0.00167316  0.00000902  0.0038044 0.9200
 67  -4919.7569598052  -0.000589927455 0.00162056  0.00000895  0.0035011 0.9200
 68  -4919.7575150622  -0.000555257044 0.00157079  0.00000890  0.0032220 0.9200
 69  -4919.7580378283  -0.000522766058 0.01904621  0.00011060  0.0029652 0.0000
 70  -4919.7664295153  -0.008391687024 0.00336423  0.00003132  0.0022334 0.0000
 71  -4919.7670231923  -0.000593677026 0.00233033  0.00001670  0.0021176 0.0000
 72  -4919.7672686917  -0.000245499349 0.00301710  0.00002677  0.0018829 0.0000
 73  -4919.7677006103  -0.000431918670 0.00317066  0.00002825  0.0019528 0.0000
 74  -4919.7681200993  -0.000419488983 0.00273324  0.00002389  0.0019904 0.0000
 75  -4919.7684454421  -0.000325342773 0.00322550  0.00002586  0.0019914 0.0000
 76  -4919.7687874800  -0.000342037860 0.00274535  0.00002082  0.0019907 0.0000
 77  -4919.7690423109  -0.000254830964 0.00430647  0.00002634  0.0019466 0.0000
 78  -4919.7693661750  -0.000323864030 0.00266815  0.00001717  0.0019123 0.0000
 79  -4919.7695582274  -0.000192052445 0.00771160  0.00004158  0.0018171 0.0000
 80  -4919.7699980270  -0.000439799646 0.00106432  0.00000886  0.0023325 0.0000
 81  -4919.7700289859  -0.000030958900 0.00630794  0.00003104  0.0015697 0.0000
 82  -4919.7703229486  -0.000293962611 0.00519494  0.00002773  0.0017923 0.0000
 83  -4919.7705463231  -0.000223374561 0.00620824  0.00003197  0.0016762 0.0000
 84  -4919.7707624265  -0.000216103350 0.00355579  0.00002024  0.0021744 0.0000
 85  -4919.7708796478  -0.000117221372 0.00632349  0.00003205  0.0012855 0.0000
 86  -4919.7710171177  -0.000137469809 0.00087903  0.00000886  0.0023627 0.0000
 87  -4919.7710511173  -0.000033999649 0.00451421  0.00002251  0.0006386 0.0000
 88  -4919.7711140694  -0.000062952132 0.00138662  0.00000970  0.0015382 0.0000
 89  -4919.7711383448  -0.000024275319 0.00167958  0.00000951  0.0006145 0.0000
 90  -4919.7711589956  -0.000020650827 0.00051251  0.00000466  0.0005388 0.0000
 91  -4919.7711663524  -0.000007356849 0.00085797  0.00000517  0.0004391 0.0000
 92  -4919.7711777740  -0.000011421597 0.00045721  0.00000315  0.0004262 0.0000
 93  -4919.7711839187  -0.000006144647 0.00061808  0.00000362  0.0004063 0.0000
 94  -4919.7711925281  -0.000008609403 0.00059848  0.00000362  0.0003926 0.0000
 95  -4919.7712008778  -0.000008349722 0.00064659  0.00000389  0.0003717 0.0000
 96  -4919.7712095554  -0.000008677627 0.00069099  0.00000411  0.0003497 0.0000
 97  -4919.7712181306  -0.000008575224 0.00078810  0.00000476  0.0003266 0.0000
 98  -4919.7712280872  -0.000009956589 0.00041558  0.00000263  0.0003018 0.0000
 99  -4919.7712321813  -0.000004094027 0.00253904  0.00001378  0.0002850 0.0000
100  -4919.7712576350  -0.000025453754 0.00063606  0.00000330  0.0011217 0.0000
101  -4919.7712594046  -0.000001769539 0.00149067  0.00000867  0.0002286 0.0000
102  -4919.7712726807  -0.000013276108 0.00094396  0.00000654  0.0006468 0.0000
103  -4919.7712808925  -0.000008211803 0.00096995  0.00000659  0.0004401 0.0000
104  -4919.7712881462  -0.000007253759 0.00087937  0.00000618  0.0004764 0.0000
105  -4919.7712940302  -0.000005883976 0.00060988  0.00000416  0.0004537 0.0000
106  -4919.7712974435  -0.000003413261 0.00093459  0.00000642  0.0002500 0.0000
107  -4919.7713025467  -0.000005103208 0.00051527  0.00000345  0.0005282 0.0000
108  -4919.7713049207  -0.000002373996 0.00107265  0.00000698  0.0002002 0.0000
109  -4919.7713092386  -0.000004317909 0.00040191  0.00000208  0.0006187 0.0000
110  -4919.7713101750  -0.000000936406 0.00075107  0.00000479  0.0001367 0.0000
111  -4919.7713127634  -0.000002588390 0.00039965  0.00000283  0.0004102 0.0000
112  -4919.7713142638  -0.000001500382 0.00046673  0.00000326  0.0001945 0.0000
113  -4919.7713159849  -0.000001721151 0.00028862  0.00000189  0.0002427 0.0000
114  -4919.7713168472  -0.000000862307 0.00055693  0.00000357  0.0001069 0.0000
115  -4919.7713184233  -0.000001576120 0.00021340  0.00000108  0.0002667 0.0000
116  -4919.7713187208  -0.000000297436 0.00043810  0.00000270  0.0000674 0.0000
117  -4919.7713196959  -0.000000975095 0.00018951  0.00000127  0.0001772 0.0000
118  -4919.7713201211  -0.000000425202 0.00019429  0.00000113  0.0000520 0.0000
119  -4919.7713204422  -0.000000321103 0.00010322  0.00000058  0.0000482 0.0000
120  -4919.7713205469  -0.000000104750 0.00012638  0.00000087  0.0000352 0.0000
121  -4919.7713207498  -0.000000202844 0.00008543  0.00000051  0.0000466 0.0000
122  -4919.7713208584  -0.000000108678 0.00015174  0.00000102  0.0000338 0.0000
123  -4919.7713210256  -0.000000167114 0.00009541  0.00000054  0.0000642 0.0000
124  -4919.7713211102  -0.000000084684 0.00012106  0.00000082  0.0000326 0.0000
125  -4919.7713212212  -0.000000110940 0.00008056  0.00000037  0.0000491 0.0000
126  -4919.7713212668  -0.000000045644 0.00014417  0.00000076  0.0000282 0.0000
127  -4919.7713213420  -0.000000075201 0.00007522  0.00000035  0.0000450 0.0000
128  -4919.7713213725  -0.000000030479 0.00014160  0.00000065  0.0000206 0.0000
129  -4919.7713214155  -0.000000042990 0.00006105  0.00000027  0.0000343 0.0000
130  -4919.7713214292  -0.000000013676 0.00010065  0.00000045  0.0000124 0.0000
131  -4919.7713214451  -0.000000015900 0.00004200  0.00000019  0.0000227 0.0000
132  -4919.7713214497  -0.000000004624 0.00003137  0.00000016  0.0000068 0.0000
133  -4919.7713214524  -0.000000002707 0.00001948  0.00000010  0.0000071 0.0000
134  -4919.7713214534  -0.000000000964 0.00001399  0.00000007  0.0000035 0.0000
135  -4919.7713214539  -0.000000000547 0.00001129  0.00000007  0.0000025 0.0000
136  -4919.7713214547  -0.000000000753 0.00000932  0.00000005  0.0000034 0.0000
137  -4919.7713214545   0.000000000159 0.00000609  0.00000003  0.0000028 0.0000
138  -4919.7713214550  -0.000000000477 0.00000419  0.00000003  0.0000012 0.0000
139  -4919.7713214546   0.000000000348 0.00000312  0.00000002  0.0000011 0.0000
140  -4919.7713214551  -0.000000000461 0.00000395  0.00000003  0.0000011 0.0000
141  -4919.7713214551   0.000000000023 0.00000241  0.00000001  0.0000017 0.0000
142  -4919.7713214553  -0.000000000239 0.00000258  0.00000002  0.0000008 0.0000
143  -4919.7713214557  -0.000000000406 0.00000169  0.00000001  0.0000011 0.0000
144  -4919.7713214554   0.000000000306 0.00000127  0.00000001  0.0000007 0.0000
145  -4919.7713214555  -0.000000000065 0.00000102  0.00000001  0.0000005 0.0000
146  -4919.7713214557  -0.000000000206 0.00000076  0.00000000  0.0000003 0.0000
147  -4919.7713214549   0.000000000752 0.00000053  0.00000000  0.0000002 0.0000
148  -4919.7713214557  -0.000000000769 0.00000033  0.00000000  0.0000002 0.0000
149  -4919.7713214557   0.000000000016 0.00000020  0.00000000  0.0000002 0.0000
                 **** Energy Check signals convergence ****

               *****************************************************
               *                     SUCCESS                       *
               *           SCF CONVERGED AFTER 150 CYCLES          *
               *****************************************************


----------------
TOTAL SCF ENERGY
----------------

Total Energy       :        -4919.77132146 Eh         -133873.78367 eV

Components:
Nuclear Repulsion  :         4835.02443928 Eh          131567.70377 eV
Electronic Energy  :        -9754.79576073 Eh         -265441.48743 eV
One Electron Energy:       -16489.07198604 Eh         -448690.45972 eV
Two Electron Energy:         6734.27622531 Eh          183248.97229 eV
CPCM Dielectric    :           -0.34566300 Eh              -9.40597 eV

Virial components:
Potential Energy   :        -9829.13947176 Eh         -267464.48266 eV
Kinetic Energy     :         4909.36815031 Eh          133590.69899 eV
Virial Ratio       :            2.00211904


DFT components:
N(Alpha)           :      146.999995402279 electrons
N(Beta)            :      137.999995439295 electrons
N(Total)           :      284.999990841575 electrons
E(X)               :     -170.450335842934 Eh       
E(C)               :      -10.729518610021 Eh       
E(XC)              :     -181.179854452955 Eh       
DFET-embed. en.    :        0.000000000000 Eh       
CPCM Solvation Model Properties:
Surface-charge          :            1.94648034
Charge-correction       :           -0.00996546 Eh              -0.27117 eV
Free-energy (cav+disp)  :            0.00695890 Eh               0.18936 eV
Corrected G(solv)       :        -4919.77432802 Eh         -133873.86548 eV

---------------
SCF CONVERGENCE
---------------

  Last Energy change         ...    4.0654e-10  Tolerance :   1.0000e-09
[...]
                 0.1317               0.3388              -0.5014
                -0.1399              -0.5014              -0.0685

 A(FC)          -0.1057              -0.1057              -0.1057
 A(SD)          -0.2923              -0.5170               0.8092
             ----------           ----------           ----------
 A(Tot)         -0.3979              -0.6226               0.7036    A(iso)=   -0.1057
 Orientation: 
  X          -0.1878948           -0.9715959           -0.1438645
  Y           0.5753944            0.0098202           -0.8178171
  Z           0.7960005           -0.2364424            0.5572057

Notes:  (1) The A matrix conforms to the "SAI" spin Hamiltonian convention.
        (2) Tensor is right-handed.

 RHO(0)=    119.738453798 a.u.**-3

 -----------------------------------------------------------
 Nucleus  14C : A:ISTP=   13 I=  0.5 P=134.1903 MHz/au**3
                Q:ISTP=   13 I=  0.5 Q=  0.0000 barn     
 -----------------------------------------------------------
 Raw HFC matrix (all values in MHz): 
 ------------------------------
                 0.2911              -0.1227              -0.3365
                -0.1227              -0.0520               0.1386
                -0.3365               0.1386               0.1681

 A(FC)           0.1357               0.1357               0.1357
 A(SD)          -0.2154              -0.2704               0.4858
             ----------           ----------           ----------
 A(Tot)         -0.0797              -0.1346               0.6215    A(iso)=    0.1357
 Orientation: 
  X           0.5667099           -0.3729972           -0.7346516
  Y           0.7444502            0.6138717            0.2625937
  Z           0.3530351           -0.6957260            0.6255650

Notes:  (1) The A matrix conforms to the "SAI" spin Hamiltonian convention.
        (2) Tensor is right-handed.

 RHO(0)=    119.515388567 a.u.**-3

 -----------------------------------------------------------
 Nucleus  16C : A:ISTP=   13 I=  0.5 P=134.1903 MHz/au**3
                Q:ISTP=   13 I=  0.5 Q=  0.0000 barn     
 -----------------------------------------------------------
 Raw HFC matrix (all values in MHz): 
 ------------------------------
                 0.0475              -0.0667              -0.1332
                -0.0667              -0.1198               0.0472
                -0.1332               0.0472              -0.0597

 A(FC)          -0.0440              -0.0440              -0.0440
 A(SD)          -0.0991              -0.1061               0.2052
             ----------           ----------           ----------
 A(Tot)         -0.1431              -0.1501               0.1612    A(iso)=   -0.0440
 Orientation: 
  X           0.3638261           -0.4856674           -0.7948319
  Y           0.9298361            0.2398392            0.2790735
  Z           0.0550949           -0.8405976            0.5388508

Notes:  (1) The A matrix conforms to the "SAI" spin Hamiltonian convention.
        (2) Tensor is right-handed.

 RHO(0)=    119.511458274 a.u.**-3

 -----------------------------------------------------------
 Nucleus  18C : A:ISTP=   13 I=  0.5 P=134.1903 MHz/au**3
                Q:ISTP=   13 I=  0.5 Q=  0.0000 barn     
 -----------------------------------------------------------
 Raw HFC matrix (all values in MHz): 
 ------------------------------
                 0.2163              -0.0463              -0.1246
                -0.0463              -0.0230               0.0299
                -0.1246               0.0299               0.0496

 A(FC)           0.0810               0.0810               0.0810
 A(SD)          -0.0967              -0.1147               0.2114
             ----------           ----------           ----------
 A(Tot)         -0.0157              -0.0337               0.2924    A(iso)=    0.0810
 Orientation: 
  X          -0.4963586            0.0246326            0.8677680
  Y          -0.2528900            0.9521412           -0.1716793
  Z          -0.8304666           -0.3046644           -0.4663742

Notes:  (1) The A matrix conforms to the "SAI" spin Hamiltonian convention.
        (2) Tensor is right-handed.

 RHO(0)=    119.522686607 a.u.**-3

 -----------------------------------------------------------
 Nucleus  31C : A:ISTP=   13 I=  0.5 P=134.1903 MHz/au**3
                Q:ISTP=   13 I=  0.5 Q=  0.0000 barn     
 -----------------------------------------------------------
 Raw HFC matrix (all values in MHz): 
 ------------------------------
                -0.0484              -0.1791               0.3316
                -0.1791              -0.3438              -0.1738
                 0.3316              -0.1738              -0.1923

 A(FC)          -0.1948              -0.1948              -0.1948
 A(SD)           0.5079              -0.2299              -0.2780
             ----------           ----------           ----------
 A(Tot)          0.3131              -0.4248              -0.4728    A(iso)=   -0.1948
 Orientation: 
  X          -0.7214216           -0.5663043           -0.3985604
  Y           0.3541024           -0.7962781            0.4904617
  Z          -0.5951155            0.2126985            0.7749819

Notes:  (1) The A matrix conforms to the "SAI" spin Hamiltonian convention.
        (2) Tensor is right-handed.

 RHO(0)=    119.483006397 a.u.**-3

 -----------------------------------------------------------
 Nucleus  36C : A:ISTP=   13 I=  0.5 P=134.1903 MHz/au**3
                Q:ISTP=   13 I=  0.5 Q=  0.0000 barn     
 -----------------------------------------------------------
 Raw HFC matrix (all values in MHz): 
 ------------------------------
                 0.0658              -0.3068               0.2887
                -0.3068               0.1000              -0.3472
                 0.2887              -0.3472              -0.0028

 A(FC)           0.0543               0.0543               0.0543
 A(SD)          -0.2718              -0.3595               0.6313
             ----------           ----------           ----------
 A(Tot)         -0.2174              -0.3051               0.6856    A(iso)=    0.0543
 Orientation: 
  X           0.8136056           -0.1491419            0.5619631
  Y           0.5334488            0.5759164           -0.6194778
  Z          -0.2312537            0.8037892            0.5481284

Notes:  (1) The A matrix conforms to the "SAI" spin Hamiltonian convention.
        (2) Tensor is right-handed.

 RHO(0)=    119.650179165 a.u.**-3

 -----------------------------------------------------------
 Nucleus  38C : A:ISTP=   13 I=  0.5 P=134.1903 MHz/au**3
                Q:ISTP=   13 I=  0.5 Q=  0.0000 barn     
 -----------------------------------------------------------
 Raw HFC matrix (all values in MHz): 
 ------------------------------
                 0.0682              -0.0776               0.0313
                -0.0776               0.3752              -0.1383
                 0.0313              -0.1383               0.1287

 A(FC)           0.1907               0.1907               0.1907
 A(SD)          -0.1411              -0.1235               0.2646
             ----------           ----------           ----------
 A(Tot)          0.0496               0.0673               0.4553    A(iso)=    0.1907
 Orientation: 
  X           0.9614745           -0.1761200            0.2110654
  Y           0.2630126            0.3660802           -0.8926420
  Z           0.0799452            0.9137653            0.3982985

Notes:  (1) The A matrix conforms to the "SAI" spin Hamiltonian convention.
        (2) Tensor is right-handed.

 RHO(0)=    119.612902758 a.u.**-3

 -----------------------------------------------------------
 Nucleus  39C : A:ISTP=   13 I=  0.5 P=134.1903 MHz/au**3
                Q:ISTP=   13 I=  0.5 Q=  0.0000 barn     
 -----------------------------------------------------------
 Raw HFC matrix (all values in MHz): 
 ------------------------------
                -0.2017              -0.0190               0.0211
                -0.0190               0.6407              -0.2426
                 0.0211              -0.2426              -0.1330

 A(FC)           0.1020               0.1020               0.1020
 A(SD)          -0.2895              -0.3195               0.6091
             ----------           ----------           ----------
 A(Tot)         -0.1875              -0.2175               0.7111    A(iso)=    0.1020
 Orientation: 
  X           0.7116490           -0.7020389            0.0264029
  Y           0.2124566            0.1792381           -0.9605914
  Z           0.6696401            0.6892134            0.2767074

Notes:  (1) The A matrix conforms to the "SAI" spin Hamiltonian convention.
        (2) Tensor is right-handed.

 RHO(0)=    119.616317551 a.u.**-3

 -----------------------------------------------------------
 Nucleus  45C : A:ISTP=   13 I=  0.5 P=134.1903 MHz/au**3
                Q:ISTP=   13 I=  0.5 Q=  0.0000 barn     
 -----------------------------------------------------------
 Raw HFC matrix (all values in MHz): 
 ------------------------------
                 0.6236              -0.0254              -0.0172
                -0.0254              -0.2820               0.0697
                -0.0172               0.0697              -0.2326

 A(FC)           0.0363               0.0363               0.0363
 A(SD)          -0.2207              -0.3677               0.5884
             ----------           ----------           ----------
 A(Tot)         -0.1844              -0.3313               0.6247    A(iso)=    0.0363
 Orientation: 
  X           0.0354734            0.0114006           -0.9993056
  Y           0.5746661            0.8178478            0.0297300
  Z           0.8176188           -0.5753217            0.0224602

Notes:  (1) The A matrix conforms to the "SAI" spin Hamiltonian convention.
        (2) Tensor is right-handed.

 RHO(0)=    119.676623063 a.u.**-3

 -----------------------------------------------------------
 Nucleus  47C : A:ISTP=   13 I=  0.5 P=134.1903 MHz/au**3
                Q:ISTP=   13 I=  0.5 Q=  0.0000 barn     
 -----------------------------------------------------------
 Raw HFC matrix (all values in MHz): 
 ------------------------------
                 0.2641               0.3372              -0.2293
                 0.3372              -0.0518              -0.1264
                -0.2293              -0.1264              -0.1452

 A(FC)           0.0224               0.0224               0.0224
 A(SD)          -0.2554              -0.2958               0.5512
             ----------           ----------           ----------
 A(Tot)         -0.2331              -0.2734               0.5736    A(iso)=    0.0224
 Orientation: 
  X           0.0378261            0.6033236            0.7965989
  Y           0.5232383           -0.6911116            0.4985844
  Z           0.8513465            0.3979516           -0.3418241

Notes:  (1) The A matrix conforms to the "SAI" spin Hamiltonian convention.
        (2) Tensor is right-handed.

 RHO(0)=    119.617515185 a.u.**-3

 -----------------------------------------------------------
 Nucleus  48C : A:ISTP=   13 I=  0.5 P=134.1903 MHz/au**3
                Q:ISTP=   13 I=  0.5 Q=  0.0000 barn     
 -----------------------------------------------------------
 Raw HFC matrix (all values in MHz): 
 ------------------------------
                 0.3489               0.1152              -0.0911
                 0.1152               0.0584              -0.0434
                -0.0911              -0.0434               0.0287

 A(FC)           0.1453               0.1453               0.1453
 A(SD)          -0.1481              -0.1217               0.2698
             ----------           ----------           ----------
 A(Tot)         -0.0028               0.0237               0.4151    A(iso)=    0.1453
 Orientation: 
  X           0.0599267            0.4064939            0.9116861
  Y           0.5000968           -0.8026645            0.3250121
  Z           0.8638935            0.4364544           -0.2513873

Notes:  (1) The A matrix conforms to the "SAI" spin Hamiltonian convention.
        (2) Tensor is right-handed.

 RHO(0)=    119.609441725 a.u.**-3

 -----------------------------------------------------------
 Nucleus   0Fe: A:ISTP=   57 I=  0.5 P= 17.2798 MHz/au**3
                Q:ISTP=   57 I=  0.5 Q=  0.1600 barn     
 -----------------------------------------------------------
 Raw HFC matrix (all values in MHz): 
 ------------------------------
               -12.5042               0.1689              -0.0866
                 0.1689             -11.8555              -0.0656
                -0.0866              -0.0656             -11.7172

 A(FC)         -12.0256             -12.0256             -12.0256
 A(SD)           0.3612               0.1644              -0.5256
             ----------           ----------           ----------
 A(Tot)        -11.6644             -11.8612             -12.5512    A(iso)=  -12.0256
 Orientation: 
  X          -0.1820764            0.1599846           -0.9701820
  Y          -0.4593133            0.8585728            0.2277805
  Z           0.8694133            0.4870910           -0.0828427

Notes:  (1) The A matrix conforms to the "SAI" spin Hamiltonian convention.
        (2) Tensor is right-handed.

 RHO(0)=  11817.212712093 a.u.**-3

 -----------------------------------------------------------
 Nucleus   1Fe: A:ISTP=   57 I=  0.5 P= 17.2798 MHz/au**3
                Q:ISTP=   57 I=  0.5 Q=  0.1600 barn     
 -----------------------------------------------------------
 Raw HFC matrix (all values in MHz): 
 ------------------------------
               -11.7092              -0.4772              -0.8132
                -0.4772             -10.2923               3.0376
                -0.8132               3.0376              -6.1359

 A(FC)          -9.3791              -9.3791              -9.3791
 A(SD)           4.9671              -2.4305              -2.5365
             ----------           ----------           ----------
 A(Tot)         -4.4121             -11.8097             -11.9157    A(iso)=   -9.3791
 Orientation: 
  X          -0.1280184           -0.8876706           -0.4423258
  Y           0.4633593            0.3407943           -0.8180205
  Z           0.8768748           -0.3096775            0.3676825

Notes:  (1) The A matrix conforms to the "SAI" spin Hamiltonian convention.
        (2) Tensor is right-handed.

 RHO(0)=  11815.951387523 a.u.**-3


------------------------------------------------------------------------------- 
----------------------------------------------------------------------------
                           ORCA EULER ANGLE PROGRAM
----------------------------------------------------------------------------

Only g-tensor available        -->  using g-tensor as reference tensor

Reference tensor               ...  g

g-tensor ordering              ...  |g_min> --> |gx>
                                    |g_mid> --> |gy>
                                    |g_max> --> |gz>

A- and EFG-tensor ordering     ...  the axes |Ax>, |Qx>, |Ay>, etc. are assigned
                                    such that the Euler rotation is minimal. You
                                    can find the respective eigenvalues as Ax,
                                    EFGx, Ay, etc. in the tables below.
                                    The relation of |Ax>, |Ay>,  etc. to Amin, Amid, etc.
                                    (as printed in the ORCA EPR/NMR CALCULATION Output)
                                    is obtained in the detailed printout.

Euler rotation around          ...  z - y - z
   First rotation              -->  by alpha around z
   Second rotation             -->  by beta around y'
   Third rotation              -->  by gamma around z''
   Positive / Negative angle   -->  clockwise / counterclockwise rotation

Plot EFG-tensors                    (-)
Plot HFC-tensors                    (-)
Detailed Printout                   (-)

-------------------------------------------------------------------------
          Euler rotation of hyperfine tensor to g-tensor
-------------------------------------------------------------------------

-------------------------------------------------------------------
 Atom  |   Alpha    Beta    Gamma   |   Ax       Ay       Az 
       |          [degrees]         |           [MHz]         
-------------------------------------------------------------------
  4H       42.3     39.5    -78.2       3.96    -2.45    -3.82
  5H     -178.2     11.1    167.3       3.80    -4.05    -2.60
 20H       37.8     45.9    -11.9       0.72    -0.32    -0.38
 21H      143.7     43.1   -129.4      -1.33    -0.96     2.05
 22H     -152.3     31.4    146.7      -3.05     3.98    -2.19
 23H      179.2     12.2   -153.0      -2.38     3.73    -2.89
 24H     -146.4     20.3   -173.8      -1.41    -1.53     2.91
 25H      149.3     32.3   -156.2      -0.29    -0.28     0.57
 26H       66.5     38.0    -41.9       2.50    -0.79    -1.54
 27H       40.7     56.4    -54.8       0.58    -0.33    -0.37
 28H      -39.1     36.0     60.6       0.67    -0.08    -0.05
 29H       58.9     25.7    -79.2      -0.86     2.09    -0.90
 30H       53.8     34.1    -45.0      -0.41     1.82    -0.37
 32H     -127.7     39.3    129.9       1.84     0.16     0.23
 33H      136.6     50.7   -130.1       2.51    -0.60    -0.87
 34H     -140.4     50.4    149.2       1.75    -0.75    -0.65
 40H       85.8     19.8    -85.5      -0.89     2.07    -0.88
 41H      151.9     39.1   -108.6       0.79    -0.26    -0.28
 42H       83.5     28.4   -106.8      -0.25     0.66    -0.25
 43H      140.4     46.7   -117.2       2.39    -0.95    -1.26
 49H       80.3     44.8    -75.2       2.50    -0.88    -1.64
 50H     -102.7     43.5    126.4      -0.86    -0.87     1.91
 51H       35.3     46.7    -71.0       0.65    -0.25    -0.27
 52H       61.2     45.4    -72.7       0.81    -0.29    -0.35
  2C      -71.1     34.1     67.6      21.83    13.44    13.57
  3C       17.8     26.4      7.3       1.08     0.30     0.05
 10C       66.7     31.5    -70.6      -0.80     0.34    -0.73
 11C      -86.5     41.5     81.4      -0.62    -0.40     0.70
 14C     -179.7     43.7   -147.4      -0.13    -0.08     0.62
 16C       21.9     44.8     -0.9       0.16    -0.14    -0.15
 18C       39.1     54.4    -36.5       0.29    -0.03    -0.02
 31C      129.5     44.1   -111.0       0.31    -0.42    -0.47
 36C     -127.4     55.9    142.8       0.69    -0.31    -0.22
 38C       64.7     35.3    -88.6       0.05     0.46     0.07
 39C      128.9     37.6   -149.4      -0.19     0.71    -0.22
 45C      -65.3     43.1     70.2       0.62    -0.18    -0.33
 47C     -119.1     49.4    144.8      -0.27    -0.23     0.57
 48C       41.0     47.6    -73.3       0.42     0.02    -0.00
  0Fe     -58.0     14.5     67.2     -12.55   -11.86   -11.66
  1Fe     101.1     41.7    -86.6     -11.81   -11.92    -4.41
-------------------------------------------------------------------


Timings for individual modules:

Sum of individual times         ...   202030.987 sec (=3367.183 min)
GTO integral calculation        ...      142.542 sec (=   2.376 min)   0.1 %
Spin-Orbit-Coupling Matrices    ...      537.180 sec (=   8.953 min)   0.3 %
SCF iterations                  ...   192934.636 sec (=3215.577 min)  95.5 %
EPR/NMR calculation             ...     2142.995 sec (=  35.717 min)   1.1 %
SCF Gradient evaluation         ...     6164.037 sec (= 102.734 min)   3.1 %
Geometry relaxation             ...       37.035 sec (=   0.617 min)   0.0 %
Orbital/Density plot generation ...       72.561 sec (=   1.209 min)   0.0 %
                             ****ORCA TERMINATED NORMALLY****
TOTAL RUN TIME: 2 days 8 hours 7 minutes 42 seconds 997 msec
