mv: cannot stat '../.sub.sh': No such file or directory

                                 *****************
                                 * O   R   C   A *
                                 *****************

           --- An Ab Initio, DFT and Semiempirical electronic structure package ---

                  #######################################################
                  #                        -***-                        #
                  #          Department of theory and spectroscopy      #
                  #               Directorship: Frank Neese             #
                  #        Max Planck Institute fuer Kohlenforschung    #
                  #                Kaiser Wilhelm Platz 1               #
                  #                 D-45470 Muelheim/Ruhr               #
                  #                      Germany                        #
                  #                                                     #
                  #                  All rights reserved                #
                  #                        -***-                        #
                  #######################################################


                         Program Version 4.2.1 -  RELEASE  -


 With contributions from (in alphabetic order):
   Daniel Aravena         : Magnetic Suceptibility
   Michael Atanasov       : Ab Initio Ligand Field Theory (pilot matlab implementation)
   Alexander A. Auer      : GIAO ZORA, VPT2
   Ute Becker             : Parallelization
   Giovanni Bistoni       : ED, misc. LED, open-shell LED, HFLD
   Martin Brehm           : Molecular dynamics
   Dmytro Bykov           : SCF Hessian
   Vijay G. Chilkuri      : MRCI spin determinant printing, contributions to CSF-ICE
   Dipayan Datta          : RHF DLPNO-CCSD density
   Achintya Kumar Dutta   : EOM-CC, STEOM-CC
   Dmitry Ganyushin       : Spin-Orbit,Spin-Spin,Magnetic field MRCI
   Miquel Garcia          : C-PCM Hessian, Gaussian charge scheme
   Yang Guo               : DLPNO-NEVPT2, CIM, IAO-localization
   Andreas Hansen         : Spin unrestricted coupled pair/coupled cluster methods
   Benjamin Helmich-Paris : CASSCF linear response (MC-RPA)
   Lee Huntington         : MR-EOM, pCC
   Robert Izsak           : Overlap fitted RIJCOSX, COSX-SCS-MP3, EOM
   Christian Kollmar      : KDIIS, OOCD, Brueckner-CCSD(T), CCSD density
   Simone Kossmann        : Meta GGA functionals, TD-DFT gradient, OOMP2, MP2 Hessian
   Martin Krupicka        : AUTO-CI
   Lucas Lang             : DCDCAS
   Dagmar Lenk            : GEPOL surface, SMD
   Dimitrios Liakos       : Extrapolation schemes; Compound Job, initial MDCI parallelization
   Dimitrios Manganas     : Further ROCIS development; embedding schemes
   Dimitrios Pantazis     : SARC Basis sets
   Taras Petrenko         : DFT Hessian,TD-DFT gradient, ASA, ECA, R-Raman, ABS, FL, XAS/XES, NRVS
   Peter Pinski           : DLPNO-MP2, DLPNO-MP2 Gradient
   Christoph Reimann      : Effective Core Potentials
   Marius Retegan         : Local ZFS, SOC
   Christoph Riplinger    : Optimizer, TS searches, QM/MM, DLPNO-CCSD(T), (RO)-DLPNO pert. Triples
   Tobias Risthaus        : Range-separated hybrids, TD-DFT gradient, RPA, STAB
   Michael Roemelt        : Original ROCIS implementation
   Masaaki Saitow         : Open-shell DLPNO-CCSD energy and density
   Barbara Sandhoefer     : DKH picture change effects
   Avijit Sen             : IP-ROCIS
   Kantharuban Sivalingam : CASSCF convergence, NEVPT2, FIC-MRCI
   Bernardo de Souza      : ESD, SOC TD-DFT
   Georgi Stoychev        : AutoAux, RI-MP2 NMR
   Willem Van den Heuvel  : Paramagnetic NMR
   Boris Wezisla          : Elementary symmetry handling
   Frank Wennmohs         : Technical directorship


 We gratefully acknowledge several colleagues who have allowed us to
 interface, adapt or use parts of their codes:
   Stefan Grimme, W. Hujo, H. Kruse,             : VdW corrections, initial TS optimization,
                  C. Bannwarth                     DFT functionals, gCP, sTDA/sTD-DF
   Ed Valeev, F. Pavosevic, A. Kumar             : LibInt (2-el integral package), F12 methods
   Garnet Chan, S. Sharma, J. Yang, R. Olivares  : DMRG
   Ulf Ekstrom                                   : XCFun DFT Library
   Mihaly Kallay                                 : mrcc  (arbitrary order and MRCC methods)
   Andreas Klamt, Michael Diedenhofen            : otool_cosmo (COSMO solvation model)
   Jiri Pittner, Ondrej Demel                    : Mk-CCSD
   Frank Weinhold                                : gennbo (NPA and NBO analysis)
   Christopher J. Cramer and Donald G. Truhlar   : smd solvation model
   Lars Goerigk                                  : TD-DFT with DH, B97 family of functionals
   V. Asgeirsson, H. Jonsson                     : NEB implementation
   FAccTs GmbH                                   : IRC, NEB, NEB-TS, Multilevel, MM, QM/MM, CI optimization
   S Lehtola, MJT Oliveira, MAL Marques          : LibXC Library


 Your calculation uses the libint2 library for the computation of 2-el integrals
 For citations please refer to: http://libint.valeyev.net

 Your ORCA version has been built with support for libXC version: 4.2.3
 For citations please refer to: https://tddft.org/programs/libxc/

 This ORCA versions uses:
   CBLAS   interface :  Fast vector & matrix operations
   LAPACKE interface :  Fast linear algebra routines
   SCALAPACK package :  Parallel linear algebra routines


----- Orbital basis set information -----
Your calculation utilizes the basis: EPR-II
   V. Barone, in Recent Advances in Density Functional Methods, Part 1 (ed. D. P. Chong), World Scientific, Singapore, 1995, p. 287.

----- AuxJ basis set information -----
Your calculation utilizes the auxiliary basis: def2/J
   F. Weigend, Phys. Chem. Chem. Phys. 8, 1057 (2006).

================================================================================
                                        WARNINGS
                       Please study these warnings very carefully!
================================================================================


WARNING: Geometry Optimization
  ===> : Switching off AutoStart
         For restart on a previous wavefunction, please use MOREAD

WARNING: Broken symmetry calculations need fully converged wavefunctions
  ===> : Setting SCFConvForced true
         You can overwrite this default with %scf ConvForced false 


INFO   : the flag for use of LIBINT has been found!

================================================================================
                                       INPUT FILE
================================================================================
NAME = 5-dAdo_neutralbp86_sbdft_aba.inp
|  1> !UKS BP86 EPR-II Grid7 veryTightSCF verySlowConv opt
|  2> #this is a BS-DFT calculation
|  3> %pal nprocs 32 end
|  4> 
|  5> %maxcore 8000
|  6> 
|  7> #BE SURE TO ADJUST THIS LINE BEFORE SUBMITTING IT WILL BE DIFFERENT FOR EACH JOB
|  8> 
|  9> %cpcm
| 10>  epsilon 20
| 11> end
| 12> 
| 13> %scf
| 14>   maxiter 3000
| 15>   DIISMaxEq 15
| 16>   directresetfreq 1
| 17>   #guessmode cmatrix
| 18> 	flipspin 0
| 19> 	finalms 0.5
| 20> end
| 21> 
| 22> #aba conf.
| 23> 
| 24> %basis
| 25> 	NewGTO Fe "CP(PPP)" end
| 26> 	NewGTO S "def2-TZVP" end
| 27> end
| 28> 
| 29> %method
| 30> Z_solver DIIS
| 31> Z_MaxIter 128 # maximum number of CP-SCF iterations
| 32> Z_MaxDIIS 5 # for DIIS: maximum number of expansion vectors
| 33> Z_Shift 0.3 # for DIIS: level shift
| 34> Z_Tol 1e-6 # convergence tolerance on residual
| 35> End
| 36> 
| 37> %method
| 38>  SpecialGridAtoms 26
| 39>  SpecialGridIntAcc 7
| 40> end
| 41> 
| 42> # newGTO "EPR-III" end
| 43> #adjust charge and apply newGTO "EPR-III" end to the carbon radical and attached atoms. (atom 3)
| 44> 
| 45> *xyz  0 10
| 46>   Fe  -0.83415998976572     -1.23971792857928      0.61725457023916
| 47>   Fe  -1.86833589348257     -3.30045189939537      1.67511163858285
| 48>   C   1.13197973975702     -2.14378054662167      0.67243775104067 newGTO "EPR-III" end
| 49>   C   1.26281565030758     -3.52907829482847      0.11117253158514
| 50>   H   1.86784802941843     -1.47325301667014      0.18955600689252
| 51>   H   1.31795349380407     -2.16103095922112      1.75663785470214
| 52>   S   -1.22326872212636     -1.60849460609045      2.98729371873049
| 53>   S   -3.24347280997614     -0.13110243155247      0.54955936807440
| 54>   S   -1.69952218074233     -3.20957446115087     -0.58079540225881
| 55>   N   -0.11559428561166      0.94194491204082      1.04381574177233
| 56>   C   -0.36060750813675      1.75748287823638     -0.10151370391014
| 57>   C   0.02013215019873      1.01953648181902     -1.40825682394948
| 58>   O   -0.37591318720958     -0.17903924530952     -1.44369915800905
| 59>   O   2.62292712920169     -4.12378191176352      0.40802918050105
| 60>   C   1.08869743153734     -3.69231495204309     -1.42128978599840
| 61>   O   1.13452739108864     -2.47144635791893     -2.17157714014113
| 62>   C   2.34078856369878     -4.48966261694444     -1.86625195903704
| 63>   O   2.72608470540759     -4.21865470866529     -3.21594363980434
| 64>   C   3.36730062681353     -4.09476333167731     -0.80463557279469
| 65>   O   0.61769809460422      1.67898975580470     -2.29607506887696
| 66>   H   2.13764996505383     -5.56930542355713     -1.79052142136596
| 67>   H   0.16416552962661     -4.23531235513822     -1.64703601141179
| 68>   H   -0.60432705316169      1.26178312742659      1.88119184903134
| 69>   H   0.87950101005970      0.80866550325394      1.23859492775758
| 70>   H   0.52059851431475     -1.80806447299514     -1.77072274554136
| 71>   H   2.42201479065615     -3.29494325676243     -3.36476824303928
| 72>   H   0.56694840645750     -4.21779432055686      0.57544781753917
| 73>   H   3.76339492864021     -3.08141350633644     -1.03024607966273
| 74>   H   4.21133683456277     -4.79569684628316     -0.71955002843076
| 75>   H   -1.43939961855433      1.96862476488167     -0.14574773161731
| 76>   N   0.37071866735345      3.09041837992076     -0.13055936772498
| 77>   C   -3.85689262565831     -0.48353087312607     -1.10796498055557
| 78>   N   -4.37734010150299     -1.89723919172762     -1.14907669763054
| 79>   H   -3.04813564444174     -0.44293700623517     -1.85028815759829
| 80>   H   -4.67509528725352      0.18146764465097     -1.41369841605608
| 81>   N   -0.90984887419801     -5.01481339288798      2.29268558487121
| 82>   C   0.00471962869692     -5.07407309070348      3.26206742296432
| 83>   N   0.55724709346548     -6.30798380902571      3.29265105606130
| 84>   C   -0.02083545526184     -7.07636714268948      2.30133956827393
| 85>   C   -0.93438367373112     -6.25904427960401      1.68256017736977
| 86>   H   -1.58573224814425     -6.46292954969993      0.83989448471971
| 87>   H   1.28302439332745     -6.61374404870580      3.93607451152762
| 88>   H   0.26659565458330     -8.10758727907238      2.13267632484234
| 89>   H   0.28007974261310     -4.25296233974501      3.91510748584729
| 90>   N   -3.91348299580170     -3.45534304989889      1.97457035596283
| 91>   C   -4.61121062049787     -2.53237826403489      2.63757827122182
| 92>   N   -5.93148297388892     -2.69007674758542      2.39017172492019
| 93>   C   -4.82685305303125     -4.22181976043545      1.26818237537665
| 94>   C   -6.09394830407632     -3.75188842397875      1.51775394979816
| 95>   H   -4.17835850580306     -1.75545618236488      3.25734708593199
| 96>   H   -4.50918745710879     -5.03500296540461      0.62489599039362
| 97>   H   -7.07140308359597     -4.07084182685403      1.17493343620511
| 98>   H   -6.67663721422204     -2.11071003939282      2.76797595495362
| 99>   H   -4.76859132324889     -2.15735311864575     -2.06399794624407
|100>   H   -5.09286095963240     -2.04203813576921     -0.42526859309699
|101>   H   -3.51796156292808     -2.53569269034033     -0.92469433371501
|102>   H   0.69228367949631      3.16761063348608     -1.12624815485376
|103>   H   1.19649263398114      3.08595232379304      0.48070712220042
|104>   H   -0.22207126593199      3.88637425267526      0.12924132343374
|105> *
|106> 
|107> %eprnmr
|108>     gtensor true
|109>     nuclei = all H {aiso, adip, rho} # this compute the hyperfine coupling for all hydrogens.
|110>     nuclei = all C {aiso, adip, rho}
|111>     nuclei = all Fe {aiso, adip, rho}
|112> end
|113> 
|114> %plots
|115>   dim1 150
|116>   dim2 150
|117>   dim3 150
|118>   min1 -20.0
|119>   max1 20.0
|120>   min2 -20.0
|121>   max2 20.0
|122>   min3 -20.0
|123>   max3 20.0
|124>   Format Gaussian_Cube
|125>   MO("5-dAdo_neutralbp86_sbdft_aba_MO156.cube", 156, 1);
|126>   MO("5-dAdo_neutralbp86_sbdft_aba_MO155.cube", 155, 1);
|127>   MO("5-dAdo_neutralbp86_sbdft_aba_MO154.cube", 154, 1);
|128>   MO("5-dAdo_neutralbp86_sbdft_aba_MO153.cube", 153, 1);
|129>   MO("5-dAdo_neutralbp86_sbdft_aba_MO152.cube", 152, 1);
|130>   MO("5-dAdo_neutralbp86_sbdft_aba_MO151.cube", 151, 1);
|131>   MO("5-dAdo_neutralbp86_sbdft_aba_MO150.cube", 150, 1);
|132>   MO("5-dAdo_neutralbp86_sbdft_aba_MO149.cube", 149, 1);
|133>   MO("5-dAdo_neutralbp86_sbdft_aba_MO148.cube", 148, 1);
|134>   MO("5-dAdo_neutralbp86_sbdft_aba_MO147.cube", 147, 1);
|135>   MO("5-dAdo_neutralbp86_sbdft_aba_MO146.cube", 146, 1);
|136>   MO("5-dAdo_neutralbp86_sbdft_aba_MO145.cube", 145, 1);
|137>   MO("5-dAdo_neutralbp86_sbdft_aba_MO144.cube", 144, 1);
|138>   MO("5-dAdo_neutralbp86_sbdft_aba_MO143.cube", 143, 1);
|139>   MO("5-dAdo_neutralbp86_sbdft_aba_MO142.cube", 142, 1);
|140> End
|141> 
|142>                          ****END OF INPUT****
================================================================================

                       *****************************
                       * Geometry Optimization Run *
                       *****************************

Geometry optimization settings:
Update method            Update   .... BFGS
Choice of coordinates    CoordSys .... Z-matrix Internals
Initial Hessian          InHess   .... Almoef's Model

Convergence Tolerances:
Energy Change            TolE     ....  5.0000e-06 Eh
Max. Gradient            TolMAXG  ....  3.0000e-04 Eh/bohr
RMS Gradient             TolRMSG  ....  1.0000e-04 Eh/bohr
Max. Displacement        TolMAXD  ....  4.0000e-03 bohr
RMS Displacement         TolRMSD  ....  2.0000e-03 bohr
Strict Convergence                ....  False
------------------------------------------------------------------------------
                        ORCA OPTIMIZATION COORDINATE SETUP
------------------------------------------------------------------------------

The optimization will be done in new redundant internal coordinates
Making redundant internal coordinates   ...  (new redundants) done
Evaluating the initial hessian          ...  (Almloef) done
Evaluating the coordinates              ...  done
Calculating the B-matrix                .... done
Calculating the G-matrix                .... done
Diagonalizing the G-matrix              .... done
Small eigenvalue found = 3.383e-03
Small eigenvalue found = 5.368e-03
Small eigenvalue found = 7.581e-03
Small eigenvalue found = 9.949e-03
Small eigenvalue found = 1.152e-02
Small eigenvalue found = 1.382e-02
Small eigenvalue found = 1.648e-02
Small eigenvalue found = 2.039e-02
Small eigenvalue found = 2.543e-02
The first mode is                       ....  250
The number of degrees of freedom        ....  171

    -----------------------------------------------------------------
                    Redundant Internal Coordinates


    -----------------------------------------------------------------
         Definition                    Initial Value    Approx d2E/dq
    -----------------------------------------------------------------
      1. B(Fe  1,Fe  0)                  2.5368         0.947084   
      2. B(C   2,Fe  0)                  2.1647         0.367132   
      3. B(C   3,C   2)                  1.5004         0.416495   
      4. B(H   4,C   2)                  1.1065         0.338954   
      5. B(H   5,C   2)                  1.1002         0.346895   
      6. B(S   6,Fe  1)                  2.2362         0.761291   
      7. B(S   6,Fe  0)                  2.4299         0.373691   
      8. B(S   7,Fe  0)                  2.6530         0.164664   
      9. B(S   8,Fe  1)                  2.2640         0.687317   
     10. B(S   8,Fe  0)                  2.4626         0.331383   
     11. B(N   9,Fe  0)                  2.3362         0.175130   
     12. B(C  10,N   9)                  1.4272         0.488110   
     13. B(C  11,C  10)                  1.5483         0.349339   
     14. B(O  12,C  11)                  1.2628         0.892889   
     15. B(O  12,Fe  0)                  2.3627         0.158873   
     16. B(O  13,C   3)                  1.5138         0.355061   
     17. B(C  14,C   3)                  1.5509         0.345919   
     18. B(O  15,C  14)                  1.4337         0.476567   
     19. B(C  16,C  14)                  1.5497         0.347528   
     20. B(O  17,C  16)                  1.4295         0.483952   
     21. B(C  18,C  16)                  1.5286         0.375463   
     22. B(C  18,O  13)                  1.4232         0.495349   
     23. B(O  19,C  11)                  1.2571         0.911974   
     24. B(H  20,C  16)                  1.1012         0.345592   
     25. B(H  21,C  14)                  1.0957         0.352633   
     26. B(H  22,N   9)                  1.0210         0.415635   
     27. B(H  23,N   9)                  1.0227         0.412982   
     28. B(H  24,O  15)                  0.9888         0.467804   
     29. B(H  25,O  17)                  0.9838         0.476437   
     30. B(H  26,C   3)                  1.0836         0.368714   
     31. B(H  27,C  18)                  1.1112         0.333173   
     32. B(H  28,C  18)                  1.1004         0.346564   
     33. B(H  29,C  10)                  1.1001         0.346920   
     34. B(N  30,C  10)                  1.5207         0.346274   
     35. B(C  31,S   7)                  1.8022         0.370586   
     36. B(N  32,C  31)                  1.5070         0.364056   
     37. B(H  33,C  31)                  1.0985         0.348984   
     38. B(H  34,C  31)                  1.0978         0.349936   
     39. B(N  35,Fe  1)                  2.0589         0.485053   
     40. B(C  36,N  35)                  1.3340         0.687329   
     41. B(N  37,C  36)                  1.3523         0.642685   
     42. B(C  38,N  37)                  1.3810         0.578308   
     43. B(C  39,C  38)                  1.3731         0.664753   
     44. B(C  39,N  35)                  1.3860         0.567904   
     45. B(H  40,C  39)                  1.0844         0.367593   
     46. B(H  41,N  37)                  1.0170         0.421763   
     47. B(H  42,C  38)                  1.0837         0.368486   
     48. B(H  43,C  36)                  1.0847         0.367221   
     49. B(N  44,Fe  1)                  2.0728         0.461016   
     50. B(C  45,N  44)                  1.3335         0.688637   
     51. B(N  46,C  45)                  1.3525         0.642301   
     52. B(C  47,N  44)                  1.3859         0.568092   
     53. B(C  48,C  47)                  1.3743         0.661935   
     54. B(C  48,N  46)                  1.3838         0.572452   
     55. B(H  49,C  45)                  1.0840         0.368109   
     56. B(H  50,C  47)                  1.0844         0.367540   
     57. B(H  51,C  48)                  1.0838         0.368363   
     58. B(H  52,N  46)                  1.0167         0.422205   
     59. B(H  53,N  32)                  1.0285         0.404273   
     60. B(H  54,N  32)                  1.0280         0.404984   
     61. B(H  55,N  32)                  1.0938         0.317996   
     62. B(H  56,N  30)                  1.0492         0.374715   
     63. B(H  57,N  30)                  1.0274         0.405901   
     64. B(H  58,N  30)                  1.0259         0.408178   
     65. A(C   2,Fe  0,N   9)           96.0842         0.394280   
     66. A(S   7,Fe  0,N   9)           83.9012         0.356468   
     67. A(Fe  1,Fe  0,O  12)          143.8513         0.500877   
     68. A(S   8,Fe  0,O  12)           90.1655         0.395508   
     69. A(C   2,Fe  0,S   8)           89.8566         0.461663   
     70. A(C   2,Fe  0,S   6)           93.2789         0.471937   
     71. A(Fe  1,Fe  0,S   8)           53.8302         0.602999   
     72. A(Fe  1,Fe  0,S   7)           88.8465         0.527749   
     73. A(Fe  1,Fe  0,C   2)           91.1679         0.589774   
     74. A(S   6,Fe  0,N   9)           90.7386         0.410980   
     75. A(Fe  1,Fe  0,S   6)           53.4659         0.617170   
     76. A(S   7,Fe  0,S   8)           90.1560         0.415506   
     77. A(Fe  1,Fe  0,N   9)          143.8866         0.510060   
     78. A(N   9,Fe  0,O  12)           71.3608         0.340086   
     79. A(S   8,Fe  0,N   9)          160.7154         0.402342   
     80. A(S   7,Fe  0,O  12)           88.0679         0.350635   
     81. A(S   6,Fe  0,S   7)           86.7256         0.424507   
     82. A(S   6,Fe  0,S   8)          107.2678         0.482050   
     83. A(S   6,Fe  0,O  12)          161.7987         0.403958   
     84. A(C   2,Fe  0,O  12)           91.9235         0.387622   
     85. A(S   6,Fe  1,N  44)          104.8558         0.559889   
     86. A(Fe  0,Fe  1,S   8)           61.4115         0.695279   
     87. A(Fe  0,Fe  1,N  44)          121.5469         0.613187   
     88. A(S   8,Fe  1,N  35)          107.3126         0.554443   
     89. A(S   8,Fe  1,N  44)          102.7399         0.549119   
     90. A(Fe  0,Fe  1,S   6)           60.8211         0.709469   
     91. A(S   6,Fe  1,N  35)          108.6450         0.565337   
     92. A(S   6,Fe  1,S   8)          122.1949         0.633634   
     93. A(N  35,Fe  1,N  44)          110.7183         0.491420   
     94. A(Fe  0,Fe  1,N  35)          127.7125         0.619252   
     95. A(Fe  0,C   2,C   3)          117.0816         0.412476   
     96. A(Fe  0,C   2,H   4)          109.8667         0.356025   
     97. A(Fe  0,C   2,H   5)          100.6730         0.357428   
     98. A(C   3,C   2,H   5)          109.8422         0.328152   
     99. A(C   3,C   2,H   4)          109.7715         0.326902   
    100. A(H   4,C   2,H   5)          109.0965         0.286417   
    101. A(C   2,C   3,C  14)          117.1943         0.365336   
    102. A(O  13,C   3,H  26)          104.0799         0.320951   
    103. A(C   2,C   3,H  26)          111.7503         0.331477   
    104. A(O  13,C   3,C  14)          104.6716         0.353340   
    105. A(C   2,C   3,O  13)          111.5739         0.364685   
    106. A(C  14,C   3,H  26)          106.5213         0.321498   
    107. A(Fe  0,S   6,Fe  1)           65.7130         0.563466   
    108. A(Fe  0,S   7,C  31)          104.5285         0.384395   
    109. A(Fe  0,S   8,Fe  1)           64.7583         0.540177   
    110. A(C  10,N   9,H  23)          113.2253         0.341775   
    111. A(Fe  0,N   9,H  23)          102.2600         0.321050   
    112. A(C  10,N   9,H  22)          113.3912         0.342141   
    113. A(Fe  0,N   9,C  10)          109.5295         0.368609   
    114. A(H  22,N   9,H  23)          110.5115         0.299084   
    115. A(Fe  0,N   9,H  22)          107.1614         0.321386   
    116. A(N   9,C  10,C  11)          111.2686         0.373716   
    117. A(H  29,C  10,N  30)          107.6135         0.316480   
    118. A(C  11,C  10,N  30)          106.4634         0.352430   
    119. A(N   9,C  10,N  30)          115.6993         0.370811   
    120. A(C  11,C  10,H  29)          107.3784         0.318825   
    121. A(N   9,C  10,H  29)          108.0758         0.334861   
    122. A(O  12,C  11,O  19)          128.8425         0.491263   
    123. A(C  10,C  11,O  19)          117.5780         0.416986   
    124. A(C  10,C  11,O  12)          113.5125         0.415420   
    125. A(Fe  0,O  12,C  11)          117.5439         0.402573   
    126. A(C   3,O  13,C  18)          107.1467         0.373360   
    127. A(C  16,C  14,H  21)          111.5682         0.319406   
    128. A(O  15,C  14,H  21)          109.9470         0.334439   
    129. A(C   3,C  14,H  21)          110.5155         0.319164   
    130. A(O  15,C  14,C  16)          105.1918         0.371845   
    131. A(C   3,C  14,C  16)          104.3094         0.354242   
    132. A(C   3,C  14,O  15)          115.0790         0.371548   
    133. A(C  14,O  15,H  24)          109.8347         0.347603   
    134. A(C  18,C  16,H  20)          109.2321         0.322405   
    135. A(O  17,C  16,H  20)          107.4887         0.334173   
    136. A(C  14,C  16,H  20)          109.6128         0.318356   
    137. A(O  17,C  16,C  18)          115.1971         0.377842   
    138. A(C  14,C  16,C  18)          102.1365         0.359208   
    139. A(C  14,C  16,O  17)          113.0368         0.372832   
    140. A(C  16,O  17,H  25)          103.7404         0.349581   
    141. A(O  13,C  18,C  16)          103.6069         0.379368   
    142. A(H  27,C  18,H  28)          108.8554         0.285608   
    143. A(C  16,C  18,H  28)          113.8417         0.322553   
    144. A(O  13,C  18,H  28)          108.8019         0.335625   
    145. A(C  16,C  18,H  27)          109.5096         0.320480   
    146. A(O  13,C  18,H  27)          112.2126         0.333435   
    147. A(C  10,N  30,H  57)          111.8000         0.321963   
    148. A(C  10,N  30,H  56)          103.2983         0.317786   
    149. A(H  56,N  30,H  57)          108.5787         0.293411   
    150. A(H  57,N  30,H  58)          108.4895         0.297407   
    151. A(H  56,N  30,H  58)          111.1219         0.293670   
    152. A(C  10,N  30,H  58)          113.4132         0.322258   
    153. A(H  33,C  31,H  34)          109.7633         0.288118   
    154. A(N  32,C  31,H  34)          107.6535         0.319524   
    155. A(S   7,C  31,H  34)          113.0398         0.338758   
    156. A(N  32,C  31,H  33)          105.6928         0.319382   
    157. A(S   7,C  31,H  33)          111.3265         0.338604   
    158. A(S   7,C  31,N  32)          109.0313         0.377974   
    159. A(H  54,N  32,H  55)          108.6740         0.285856   
    160. A(C  31,N  32,H  55)          105.7010         0.311955   
    161. A(H  53,N  32,H  54)          109.0220         0.296848   
    162. A(C  31,N  32,H  54)          110.6887         0.324498   
    163. A(C  31,N  32,H  53)          113.1342         0.324404   
    164. A(H  53,N  32,H  55)          109.4953         0.285778   
    165. A(C  36,N  35,C  39)          106.9860         0.429590   
    166. A(Fe  1,N  35,C  39)          127.3879         0.453396   
    167. A(Fe  1,N  35,C  36)          125.0366         0.469482   
    168. A(N  37,C  36,H  43)          124.9871         0.354047   
    169. A(N  35,C  36,H  43)          125.3034         0.358107   
    170. A(N  35,C  36,N  37)          109.6987         0.439261   
    171. A(C  38,N  37,H  41)          125.8445         0.352918   
    172. A(C  36,N  37,H  41)          125.4666         0.359299   
    173. A(C  36,N  37,C  38)          108.6874         0.425833   
    174. A(C  39,C  38,H  42)          132.2763         0.358506   
    175. A(N  37,C  38,H  42)          122.0130         0.347992   
    176. A(N  37,C  38,C  39)          105.7106         0.431233   
    177. A(C  38,C  39,H  40)          129.6346         0.358358   
    178. A(N  35,C  39,H  40)          121.4329         0.346788   
    179. A(N  35,C  39,C  38)          108.9169         0.429830   
    180. A(C  45,N  44,C  47)          106.9401         0.429762   
    181. A(Fe  1,N  44,C  47)          128.1672         0.449255   
    182. A(Fe  1,N  44,C  45)          122.4366         0.465292   
    183. A(N  46,C  45,H  49)          125.3066         0.354156   
    184. A(N  44,C  45,H  49)          124.8471         0.358370   
    185. A(N  44,C  45,N  46)          109.8228         0.439364   
    186. A(C  48,N  46,H  52)          125.8369         0.352373   
    187. A(C  45,N  46,H  52)          125.5243         0.359326   
    188. A(C  45,N  46,C  48)          108.6267         0.425013   
    189. A(C  48,C  47,H  50)          129.3626         0.358090   
    190. A(N  44,C  47,H  50)          121.6019         0.346799   
    191. A(N  44,C  47,C  48)          109.0241         0.429528   
    192. A(C  47,C  48,H  51)          132.3335         0.358226   
    193. A(N  46,C  48,H  51)          122.0799         0.347376   
    194. A(N  46,C  48,C  47)          105.5822         0.430117   
    195. D(S   6,Fe  1,Fe  0,S   8)   -177.8159         0.002075   
    196. D(S   8,Fe  1,Fe  0,O  12)      5.8972         0.002075   
    197. D(N  44,Fe  1,Fe  0,N   9)     81.3224         0.002075   
    198. D(S   8,Fe  1,Fe  0,C   2)    -88.9684         0.002075   
    199. D(N  35,Fe  1,Fe  0,N   9)   -100.5602         0.002075   
    200. D(S   8,Fe  1,Fe  0,S   6)    177.8159         0.002075   
    201. D(S   6,Fe  1,Fe  0,C   2)     93.2157         0.002075   
    202. D(N  44,Fe  1,Fe  0,S   6)     90.1008         0.002075   
    203. D(N  35,Fe  1,Fe  0,C   2)      1.4339         0.002075   
    204. D(N  44,Fe  1,Fe  0,O  12)    -81.8180         0.002075   
    205. D(N  35,Fe  1,Fe  0,S   6)    -91.7818         0.002075   
    206. D(N  35,Fe  1,Fe  0,O  12)     96.2994         0.002075   
    207. D(S   6,Fe  1,Fe  0,S   7)    -86.7793         0.002075   
    208. D(N  35,Fe  1,Fe  0,S   8)     90.4022         0.002075   
    209. D(N  35,Fe  1,Fe  0,S   7)   -178.5611         0.002075   
    210. D(N  44,Fe  1,Fe  0,C   2)   -176.6835         0.002075   
    211. D(S   8,Fe  1,Fe  0,N   9)    169.0375         0.002075   
    212. D(N  44,Fe  1,Fe  0,S   7)      3.3215         0.002075   
    213. D(N  44,Fe  1,Fe  0,S   8)    -87.7152         0.002075   
    214. D(S   6,Fe  1,Fe  0,O  12)   -171.9187         0.002075   
    215. D(S   6,Fe  1,Fe  0,N   9)     -8.7784         0.002075   
    216. D(S   8,Fe  1,Fe  0,S   7)     91.0367         0.002075   
    217. D(H   4,C   2,Fe  0,Fe  1)    176.4377         0.002213   
    218. D(H   4,C   2,Fe  0,S   6)   -130.0916         0.002213   
    219. D(H   4,C   2,Fe  0,S   8)    122.6200         0.002213   
    220. D(C   3,C   2,Fe  0,N   9)   -165.0643         0.002213   
    221. D(C   3,C   2,Fe  0,S   8)     -3.4467         0.002213   
    222. D(H   4,C   2,Fe  0,N   9)    -38.9976         0.002213   
    223. D(C   3,C   2,Fe  0,Fe  1)     50.3711         0.002213   
    224. D(C   3,C   2,Fe  0,S   6)    103.8418         0.002213   
    225. D(C   3,C   2,Fe  0,O  12)    -93.6075         0.002213   
    226. D(H   5,C   2,Fe  0,N   9)     75.9687         0.002213   
    227. D(H   5,C   2,Fe  0,S   6)    -15.1252         0.002213   
    228. D(H   5,C   2,Fe  0,S   8)   -122.4137         0.002213   
    229. D(H   5,C   2,Fe  0,Fe  1)    -68.5959         0.002213   
    230. D(H   5,C   2,Fe  0,O  12)    147.4255         0.002213   
    231. D(H   4,C   2,Fe  0,O  12)     32.4592         0.002213   
    232. D(H  26,C   3,C   2,H   5)     59.0407         0.013730   
    233. D(H  26,C   3,C   2,H   4)    178.9951         0.013730   
    234. D(H  26,C   3,C   2,Fe  0)    -54.8912         0.013730   
    235. D(C  14,C   3,C   2,H   4)    -57.6923         0.013730   
    236. D(O  13,C   3,C   2,H   5)    -57.0251         0.013730   
    237. D(O  13,C   3,C   2,H   4)     62.9293         0.013730   
    238. D(O  13,C   3,C   2,Fe  0)   -170.9570         0.013730   
    239. D(C  14,C   3,C   2,H   5)   -177.6466         0.013730   
    240. D(C  14,C   3,C   2,Fe  0)     68.4214         0.013730   
    241. D(Fe  0,S   6,Fe  1,N  44)   -118.1541         0.002382   
    242. D(Fe  0,S   6,Fe  1,N  35)    123.4357         0.002382   
    243. D(Fe  0,S   6,Fe  1,S   8)     -2.2663         0.002382   
    244. D(Fe  1,S   6,Fe  0,O  12)    164.6046         0.001757   
    245. D(Fe  1,S   6,Fe  0,N   9)    174.8390         0.001757   
    246. D(Fe  1,S   6,Fe  0,S   8)      1.8462         0.001757   
    247. D(Fe  1,S   6,Fe  0,S   7)     90.9908         0.001757   
    248. D(Fe  1,S   6,Fe  0,C   2)    -89.0238         0.001757   
    249. D(C  31,S   7,C   2,H   5)   -163.9925         0.001500   
    250. D(C  31,S   7,C   2,C   3)    -45.0217         0.001500   
    251. D(C  31,S   7,Fe  0,O  12)     48.5849         0.001554   
    252. D(C  31,S   7,Fe  0,N   9)    120.0426         0.001554   
    253. D(C  31,S   7,C   2,H   4)     81.0440         0.001500   
    254. D(C  31,S   7,Fe  0,S   8)    -41.5755         0.001554   
    255. D(C  31,S   7,Fe  0,S   6)   -148.8631         0.001554   
    256. D(C  31,S   7,Fe  0,Fe  1)    -95.3931         0.001554   
    257. D(Fe  1,S   8,Fe  0,C   2)     91.5516         0.001705   
    258. D(Fe  0,S   8,Fe  1,N  44)    119.1876         0.002223   
    259. D(Fe  0,S   8,Fe  1,N  35)   -124.0437         0.002223   
    260. D(Fe  0,S   8,Fe  1,S   6)      2.2534         0.002223   
    261. D(Fe  1,S   8,Fe  0,O  12)   -176.5253         0.001705   
    262. D(Fe  1,S   8,Fe  0,N   9)   -160.1614         0.001705   
    263. D(Fe  1,S   8,Fe  0,S   7)    -88.4570         0.001705   
    264. D(Fe  1,S   8,Fe  0,S   6)     -1.8376         0.001705   
    265. D(H  23,N   9,Fe  0,O  12)    -96.4358         0.001688   
    266. D(H  23,N   9,Fe  0,S   7)    173.5495         0.001688   
    267. D(H  23,N   9,Fe  0,C   2)     -6.4547         0.001688   
    268. D(H  22,N   9,Fe  0,O  12)    147.3078         0.001688   
    269. D(H  22,N   9,Fe  0,S   8)    130.0104         0.001688   
    270. D(H  22,N   9,Fe  0,S   7)     57.2932         0.001688   
    271. D(H  23,N   9,Fe  0,S   6)     86.9219         0.001688   
    272. D(H  22,N   9,Fe  0,S   6)    -29.3345         0.001688   
    273. D(H  22,N   9,Fe  0,C   2)   -122.7111         0.001688   
    274. D(H  22,N   9,Fe  0,Fe  1)    -22.2903         0.001688   
    275. D(C  10,N   9,Fe  0,O  12)     23.9130         0.001688   
    276. D(H  23,N   9,Fe  0,Fe  1)     93.9661         0.001688   
    277. D(C  10,N   9,Fe  0,S   6)   -152.7293         0.001688   
    278. D(C  10,N   9,Fe  0,S   7)    -66.1017         0.001688   
    279. D(C  10,N   9,Fe  0,C   2)    113.8941         0.001688   
    280. D(H  23,N   9,Fe  0,S   8)   -113.7332         0.001688   
    281. D(C  10,N   9,Fe  0,Fe  1)   -145.6851         0.001688   
    282. D(C  10,N   9,Fe  0,S   8)      6.6156         0.001688   
    283. D(N  30,C  10,N   9,H  23)    -51.0028         0.021894   
    284. D(N  30,C  10,N   9,H  22)     75.9430         0.021894   
    285. D(N  30,C  10,N   9,Fe  0)   -164.4178         0.021894   
    286. D(H  29,C  10,N   9,H  23)   -171.6878         0.021894   
    287. D(H  29,C  10,N   9,H  22)    -44.7421         0.021894   
    288. D(H  29,C  10,N   9,Fe  0)     74.8971         0.021894   
    289. D(C  11,C  10,N   9,H  23)     70.6540         0.021894   
    290. D(C  11,C  10,N   9,H  22)   -162.4003         0.021894   
    291. D(C  11,C  10,N   9,Fe  0)    -42.7611         0.021894   
    292. D(O  19,C  11,C  10,N  30)    -11.4398         0.009224   
    293. D(O  19,C  11,C  10,H  29)    103.5913         0.009224   
    294. D(O  19,C  11,C  10,N   9)   -138.3289         0.009224   
    295. D(O  12,C  11,C  10,N  30)    171.2720         0.009224   
    296. D(O  12,C  11,C  10,H  29)    -73.6969         0.009224   
    297. D(O  12,C  11,C  10,N   9)     44.3829         0.009224   
    298. D(Fe  0,O  12,C  11,C  10)    -21.8911         0.063197   
    299. D(C  11,O  12,Fe  0,N   9)     -0.4006         0.001639   
    300. D(C  11,O  12,Fe  0,S   8)    173.9641         0.001639   
    301. D(C  11,O  12,Fe  0,S   7)     83.8136         0.001639   
    302. D(C  11,O  12,Fe  0,S   6)     10.4060         0.001639   
    303. D(C  11,O  12,Fe  0,C   2)    -96.1738         0.001639   
    304. D(Fe  0,O  12,C  11,O  19)    161.1954         0.063197   
    305. D(C  11,O  12,Fe  0,Fe  1)    169.2063         0.001639   
    306. D(C  18,O  13,C   3,H  26)    133.8604         0.010076   
    307. D(C  18,O  13,C   3,C  14)     22.2233         0.010076   
    308. D(C  18,O  13,C   3,C   2)   -105.4764         0.010076   
    309. D(H  21,C  14,C   3,O  13)    124.6432         0.009659   
    310. D(H  21,C  14,C   3,C   2)   -111.1728         0.009659   
    311. D(C  16,C  14,C   3,H  26)   -105.2654         0.009659   
    312. D(C  16,C  14,C   3,O  13)      4.6091         0.009659   
    313. D(C  16,C  14,C   3,C   2)    128.7931         0.009659   
    314. D(O  15,C  14,C   3,H  26)    140.0286         0.009659   
    315. D(O  15,C  14,C   3,O  13)   -110.0969         0.009659   
    316. D(H  21,C  14,C   3,H  26)     14.7687         0.009659   
    317. D(O  15,C  14,C   3,C   2)     14.0871         0.009659   
    318. D(H  24,O  15,C  14,H  21)     75.3493         0.017911   
    319. D(H  24,O  15,C  14,C  16)   -164.4004         0.017911   
    320. D(H  24,O  15,C  14,C   3)    -50.2054         0.017911   
    321. D(O  17,C  16,C  14,C   3)   -151.8150         0.009742   
    322. D(H  20,C  16,C  14,O  15)   -150.1930         0.009742   
    323. D(H  20,C  16,C  14,C   3)     88.3040         0.009742   
    324. D(C  18,C  16,C  14,H  21)   -146.7607         0.009742   
    325. D(C  18,C  16,C  14,O  15)     94.0658         0.009742   
    326. D(C  18,C  16,C  14,C   3)    -27.4372         0.009742   
    327. D(O  17,C  16,C  14,H  21)     88.8614         0.009742   
    328. D(H  20,C  16,C  14,H  21)    -31.0195         0.009742   
    329. D(O  17,C  16,C  14,O  15)    -30.3121         0.009742   
    330. D(H  25,O  17,C  16,H  20)    150.0252         0.018483   
    331. D(H  25,O  17,C  16,C  18)    -87.9745         0.018483   
    332. D(H  25,O  17,C  16,C  14)     28.9334         0.018483   
    333. D(H  28,C  18,C  16,H  20)     43.9776         0.011250   
    334. D(H  28,C  18,C  16,O  17)    -77.0795         0.011250   
    335. D(H  28,C  18,C  16,C  14)    159.9956         0.011250   
    336. D(H  27,C  18,C  16,H  20)    166.0798         0.011250   
    337. D(H  27,C  18,C  16,O  17)     45.0227         0.011250   
    338. D(H  27,C  18,C  16,C  14)    -77.9022         0.011250   
    339. D(O  13,C  18,C  16,H  20)    -74.0249         0.011250   
    340. D(O  13,C  18,C  16,O  17)    164.9180         0.011250   
    341. D(O  13,C  18,C  16,C  14)     41.9930         0.011250   
    342. D(H  28,C  18,O  13,C   3)   -161.8367         0.019387   
    343. D(H  27,C  18,O  13,C   3)     77.6463         0.019387   
    344. D(C  16,C  18,O  13,C   3)    -40.3878         0.019387   
    345. D(H  58,N  30,C  10,C  11)    134.1543         0.011066   
    346. D(H  58,N  30,C  10,N   9)   -101.6522         0.011066   
    347. D(H  57,N  30,C  10,H  29)    142.3342         0.011066   
    348. D(H  57,N  30,C  10,C  11)   -102.7940         0.011066   
    349. D(H  57,N  30,C  10,N   9)     21.3996         0.011066   
    350. D(H  56,N  30,C  10,H  29)   -101.1055         0.011066   
    351. D(H  56,N  30,C  10,C  11)     13.7663         0.011066   
    352. D(H  58,N  30,C  10,H  29)     19.2825         0.011066   
    353. D(H  56,N  30,C  10,N   9)    137.9599         0.011066   
    354. D(H  34,C  31,S   7,Fe  0)   -160.3466         0.003702   
    355. D(H  33,C  31,S   7,Fe  0)    -36.2564         0.003702   
    356. D(N  32,C  31,S   7,Fe  0)     79.9638         0.003702   
    357. D(H  55,N  32,C  31,H  33)     57.9791         0.012172   
    358. D(H  55,N  32,C  31,S   7)    -61.7907         0.012172   
    359. D(H  54,N  32,C  31,H  34)    -67.2677         0.012172   
    360. D(H  54,N  32,C  31,H  33)    175.4744         0.012172   
    361. D(H  54,N  32,C  31,S   7)     55.7046         0.012172   
    362. D(H  53,N  32,C  31,H  34)     55.4300         0.012172   
    363. D(H  53,N  32,C  31,H  33)    -61.8278         0.012172   
    364. D(H  55,N  32,C  31,H  34)    175.2370         0.012172   
    365. D(H  53,N  32,C  31,S   7)    178.4024         0.012172   
    366. D(C  39,N  35,Fe  1,N  44)     71.5035         0.002657   
    367. D(C  39,N  35,Fe  1,S   8)    -39.8954         0.002657   
    368. D(C  39,N  35,Fe  1,S   6)   -173.8565         0.002657   
    369. D(C  39,N  35,Fe  1,Fe  0)   -106.7813         0.002657   
    370. D(C  36,N  35,Fe  1,N  44)   -118.4666         0.002657   
    371. D(C  36,N  35,Fe  1,S   8)    130.1346         0.002657   
    372. D(C  36,N  35,Fe  1,S   6)     -3.8265         0.002657   
    373. D(C  36,N  35,Fe  1,Fe  0)     63.2487         0.002657   
    374. D(H  43,C  36,N  35,C  39)    178.6579         0.038953   
    375. D(H  43,C  36,N  35,Fe  1)      6.9278         0.038953   
    376. D(N  37,C  36,N  35,C  39)     -0.1940         0.038953   
    377. D(N  37,C  36,N  35,Fe  1)   -171.9241         0.038953   
    378. D(H  41,N  37,C  36,H  43)      0.8765         0.033643   
    379. D(H  41,N  37,C  36,N  35)    179.7328         0.033643   
    380. D(C  38,N  37,C  36,H  43)   -178.7079         0.033643   
    381. D(C  38,N  37,C  36,N  35)      0.1484         0.033643   
    382. D(H  42,C  38,N  37,H  41)      0.2887         0.026814   
    383. D(H  42,C  38,N  37,C  36)    179.8711         0.026814   
    384. D(C  39,C  38,N  37,H  41)   -179.6219         0.026814   
    385. D(C  39,C  38,N  37,C  36)     -0.0395         0.026814   
    386. D(H  40,C  39,C  38,N  37)    178.4770         0.030868   
    387. D(N  35,C  39,C  38,H  42)   -179.9762         0.030868   
    388. D(N  35,C  39,C  38,N  37)     -0.0787         0.030868   
    389. D(H  40,C  39,N  35,C  36)   -178.5276         0.025799   
    390. D(H  40,C  39,N  35,Fe  1)     -7.0517         0.025799   
    391. D(C  38,C  39,N  35,C  36)      0.1688         0.025799   
    392. D(H  40,C  39,C  38,H  42)     -1.4206         0.030868   
    393. D(C  38,C  39,N  35,Fe  1)    171.6447         0.025799   
    394. D(C  47,N  44,Fe  1,S   8)     41.6732         0.002545   
    395. D(C  47,N  44,Fe  1,S   6)    170.3635         0.002545   
    396. D(C  47,N  44,Fe  1,Fe  0)    105.7690         0.002545   
    397. D(C  45,N  44,Fe  1,N  35)    127.5398         0.002545   
    398. D(C  45,N  44,Fe  1,S   8)   -118.1482         0.002545   
    399. D(C  45,N  44,Fe  1,S   6)     10.5421         0.002545   
    400. D(C  47,N  44,Fe  1,N  35)    -72.6388         0.002545   
    401. D(C  45,N  44,Fe  1,Fe  0)    -54.0524         0.002545   
    402. D(H  49,C  45,N  44,C  47)   -177.7509         0.039116   
    403. D(H  49,C  45,N  44,Fe  1)    -14.2202         0.039116   
    404. D(N  46,C  45,N  44,C  47)      0.5652         0.039116   
    405. D(N  46,C  45,N  44,Fe  1)    164.0958         0.039116   
    406. D(H  52,N  46,C  45,H  49)     -1.1642         0.033599   
    407. D(H  52,N  46,C  45,N  44)   -179.4708         0.033599   
    408. D(C  48,N  46,C  45,H  49)    177.6311         0.033599   
    409. D(C  48,N  46,C  45,N  44)     -0.6754         0.033599   
    410. D(H  50,C  47,N  44,C  45)    178.6396         0.025818   
    411. D(H  50,C  47,N  44,Fe  1)     16.3578         0.025818   
    412. D(C  48,C  47,N  44,C  45)     -0.2461         0.025818   
    413. D(C  48,C  47,N  44,Fe  1)   -162.5279         0.025818   
    414. D(H  51,C  48,C  47,H  50)      1.8466         0.030588   
    415. D(H  51,C  48,C  47,N  44)   -179.3809         0.030588   
    416. D(N  46,C  48,C  47,H  50)   -178.9270         0.030588   
    417. D(N  46,C  48,C  47,N  44)     -0.1545         0.030588   
    418. D(H  51,C  48,N  46,H  52)     -1.3870         0.026240   
    419. D(H  51,C  48,N  46,C  45)    179.8224         0.026240   
    420. D(C  47,C  48,N  46,H  52)    179.2879         0.026240   
    421. D(C  47,C  48,N  46,C  45)      0.4973         0.026240   
    -----------------------------------------------------------------

Number of atoms                         .... 59
Number of degrees of freedom            .... 421

         *************************************************************
         *                GEOMETRY OPTIMIZATION CYCLE   1            *
         *************************************************************
---------------------------------
CARTESIAN COORDINATES (ANGSTROEM)
---------------------------------
  Fe    -0.834160   -1.239718    0.617255
  Fe    -1.868336   -3.300452    1.675112
  C      1.131980   -2.143781    0.672438
  C      1.262816   -3.529078    0.111173
  H      1.867848   -1.473253    0.189556
  H      1.317953   -2.161031    1.756638
  S     -1.223269   -1.608495    2.987294
  S     -3.243473   -0.131102    0.549559
  S     -1.699522   -3.209574   -0.580795
  N     -0.115594    0.941945    1.043816
  C     -0.360608    1.757483   -0.101514
  C      0.020132    1.019536   -1.408257
  O     -0.375913   -0.179039   -1.443699
  O      2.622927   -4.123782    0.408029
  C      1.088697   -3.692315   -1.421290
  O      1.134527   -2.471446   -2.171577
  C      2.340789   -4.489663   -1.866252
  O      2.726085   -4.218655   -3.215944
  C      3.367301   -4.094763   -0.804636
  O      0.617698    1.678990   -2.296075
  H      2.137650   -5.569305   -1.790521
  H      0.164166   -4.235312   -1.647036
  H     -0.604327    1.261783    1.881192
  H      0.879501    0.808666    1.238595
  H      0.520599   -1.808064   -1.770723
  H      2.422015   -3.294943   -3.364768
  H      0.566948   -4.217794    0.575448
  H      3.763395   -3.081414   -1.030246
  H      4.211337   -4.795697   -0.719550
  H     -1.439400    1.968625   -0.145748
  N      0.370719    3.090418   -0.130559
  C     -3.856893   -0.483531   -1.107965
  N     -4.377340   -1.897239   -1.149077
  H     -3.048136   -0.442937   -1.850288
  H     -4.675095    0.181468   -1.413698
  N     -0.909849   -5.014813    2.292686
  C      0.004720   -5.074073    3.262067
  N      0.557247   -6.307984    3.292651
  C     -0.020835   -7.076367    2.301340
  C     -0.934384   -6.259044    1.682560
  H     -1.585732   -6.462930    0.839894
  H      1.283024   -6.613744    3.936075
  H      0.266596   -8.107587    2.132676
  H      0.280080   -4.252962    3.915107
  N     -3.913483   -3.455343    1.974570
  C     -4.611211   -2.532378    2.637578
  N     -5.931483   -2.690077    2.390172
  C     -4.826853   -4.221820    1.268182
  C     -6.093948   -3.751888    1.517754
  H     -4.178359   -1.755456    3.257347
  H     -4.509187   -5.035003    0.624896
  H     -7.071403   -4.070842    1.174933
  H     -6.676637   -2.110710    2.767976
  H     -4.768591   -2.157353   -2.063998
  H     -5.092861   -2.042038   -0.425269
  H     -3.517962   -2.535693   -0.924694
  H      0.692284    3.167611   -1.126248
  H      1.196493    3.085952    0.480707
  H     -0.222071    3.886374    0.129241

----------------------------
CARTESIAN COORDINATES (A.U.)
----------------------------
  NO LB      ZA    FRAG     MASS         X           Y           Z
   0 Fe   26.0000    0    55.850   -1.576334   -2.342727    1.166442
   1 Fe   26.0000    0    55.850   -3.530643   -6.236950    3.165502
   2 C     6.0000    0    12.011    2.139132   -4.051158    1.270723
   3 C     6.0000    0    12.011    2.386376   -6.668991    0.210086
   4 H     1.0000    0     1.008    3.529721   -2.784045    0.358209
   5 H     1.0000    0     1.008    2.490571   -4.083757    3.319564
   6 S    16.0000    0    32.060   -2.311643   -3.039614    5.645167
   7 S    16.0000    0    32.060   -6.129275   -0.247748    1.038517
   8 S    16.0000    0    32.060   -3.211631   -6.065217   -1.097544
   9 N     7.0000    0    14.007   -0.218442    1.780018    1.972526
  10 C     6.0000    0    12.011   -0.681449    3.321161   -0.191833
  11 C     6.0000    0    12.011    0.038044    1.926645   -2.661220
  12 O     8.0000    0    15.999   -0.710373   -0.338335   -2.728196
  13 O     8.0000    0    15.999    4.956614   -7.792818    0.771063
  14 C     6.0000    0    12.011    2.057340   -6.977464   -2.685848
  15 O     8.0000    0    15.999    2.143946   -4.670357   -4.103686
  16 C     6.0000    0    12.011    4.423449   -8.484233   -3.526705
  17 O     8.0000    0    15.999    5.151554   -7.972102   -6.077253
  18 C     6.0000    0    12.011    6.363276   -7.737981   -1.520541
  19 O     8.0000    0    15.999    1.167280    3.172831   -4.338953
  20 H     1.0000    0     1.008    4.039573  -10.524462   -3.383595
  21 H     1.0000    0     1.008    0.310228   -8.003580   -3.112447
  22 H     1.0000    0     1.008   -1.142013    2.384425    3.554937
  23 H     1.0000    0     1.008    1.662016    1.528156    2.340605
  24 H     1.0000    0     1.008    0.983789   -3.416747   -3.346181
  25 H     1.0000    0     1.008    4.576945   -6.226540   -6.358490
  26 H     1.0000    0     1.008    1.071377   -7.970476    1.087439
  27 H     1.0000    0     1.008    7.111786   -5.823028   -1.946883
  28 H     1.0000    0     1.008    7.958273   -9.062554   -1.359752
  29 H     1.0000    0     1.008   -2.720071    3.720162   -0.275423
  30 N     7.0000    0    14.007    0.700557    5.840044   -0.246721
  31 C     6.0000    0    12.011   -7.288471   -0.913741   -2.093750
  32 N     7.0000    0    14.007   -8.271974   -3.585262   -2.171440
  33 H     1.0000    0     1.008   -5.760142   -0.837030   -3.496538
  34 H     1.0000    0     1.008   -8.834650    0.342924   -2.671503
  35 N     7.0000    0    14.007   -1.719365   -9.476624    4.332548
  36 C     6.0000    0    12.011    0.008919   -9.588609    6.164414
  37 N     7.0000    0    14.007    1.053044  -11.920362    6.222209
  38 C     6.0000    0    12.011   -0.039373  -13.372396    4.348902
  39 C     6.0000    0    12.011   -1.765729  -11.827880    3.179578
  40 H     1.0000    0     1.008   -2.996600  -12.213167    1.587171
  41 H     1.0000    0     1.008    2.424565  -12.498165    7.438103
  42 H     1.0000    0     1.008    0.503793  -15.321120    4.030174
  43 H     1.0000    0     1.008    0.529274   -8.036934    7.398481
  44 N     7.0000    0    14.007   -7.395411   -6.529652    3.731397
  45 C     6.0000    0    12.011   -8.713925   -4.785501    4.984301
  46 N     7.0000    0    14.007  -11.208878   -5.083508    4.516770
  47 C     6.0000    0    12.011   -9.121430   -7.978083    2.396517
  48 C     6.0000    0    12.011  -11.515893   -7.090042    2.868139
  49 H     1.0000    0     1.008   -7.895953   -3.317331    6.155494
  50 H     1.0000    0     1.008   -8.521129   -9.514777    1.180882
  51 H     1.0000    0     1.008  -13.363015   -7.692776    2.220302
  52 H     1.0000    0     1.008  -12.617016   -3.988664    5.230717
  53 H     1.0000    0     1.008   -9.011332   -4.076807   -3.900391
  54 H     1.0000    0     1.008   -9.624112   -3.858893   -0.803641
  55 H     1.0000    0     1.008   -6.647984   -4.791765   -1.747419
  56 H     1.0000    0     1.008    1.308227    5.985917   -2.128301
  57 H     1.0000    0     1.008    2.261043    5.831605    0.908405
  58 H     1.0000    0     1.008   -0.419654    7.344183    0.244231

--------------------------------
INTERNAL COORDINATES (ANGSTROEM)
--------------------------------
 Fe     0   0   0     0.000000000000     0.00000000     0.00000000
 Fe     1   0   0     2.536770757351     0.00000000     0.00000000
 C      1   2   0     2.164735511972    91.16787699     0.00000000
 C      3   1   2     1.500395458953   117.08164898    50.37105959
 H      3   1   2     1.106473717258   109.86665547   176.43771825
 H      3   1   2     1.100169840847   100.67297521   291.40405069
 S      2   1   3     2.236213976656    60.82112716    93.21566911
 S      1   2   3     2.652998157985    88.84652458   180.00507032
 S      2   1   3     2.264039168237    61.41147075   271.03160798
 N      1   2   3     2.336224273136   143.88663270   258.00593836
 C     10   1   2     1.427204677916   109.52945138   214.31491607
 C     11  10   1     1.548258748784   111.26861243   317.23892781
 O     12  11  10     1.262811087213   113.51249324    44.38291658
 O      4   3   1     1.513836020519   111.57387558   189.04298530
 C      4   3   1     1.550936528418   117.19427237    68.42143605
 O     15   4   3     1.433719506423   115.07904681    14.08713805
 C     15   4   3     1.549673138890   104.30944192   128.79314525
 O     17  15   4     1.429533503034   113.03680258   208.18495479
 C     14   4   3     1.423197029867   107.14674558   254.52356618
 O     12  11  10     1.257054061888   117.57803427   221.67105049
 H     17  15   4     1.101194349089   109.61283892    88.30404995
 H     15   4   3     1.095703781004   110.51553785   248.82723889
 H     10   1   2     1.020957857655   107.16142540   337.70974696
 H     10   1   2     1.022700826032   102.26002574    93.96612291
 H     16  15   4     0.988771175071   109.83471100   309.79463443
 H     18  17  15     0.983793739542   103.74035718    28.93339969
 H      4   3   1     1.083564731018   111.75028548   305.10879742
 H     19  14   4     1.111156454001   112.21262521    77.64630255
 H     19  14   4     1.100429217055   108.80188016   198.16329616
 H     11  10   1     1.100149972959   108.07580996    74.89710280
 N     11  10   1     1.520657317476   115.69930081   195.58215908
 C      8   1   2     1.802186628239   104.52850443   264.60689696
 N     32   8   1     1.507025865232   109.03131306    79.96377717
 H     32   8   1     1.098535122730   111.32648520   323.74360616
 H     32   8   1     1.097793950462   113.03977057   199.65336874
 N      2   1   3     2.058914829623   127.71249464     1.43385092
 C     36   2   1     1.334034634594   125.03662704    63.24866338
 N     37  36   2     1.352315650552   109.69867284   188.07589924
 C     38  37  36     1.381047010936   108.68741871     0.14844128
 C     39  38  37     1.373125975502   105.71062606   359.96054238
 H     40  39  38     1.084393673129   129.63458018   178.47697192
 H     38  37  36     1.016973822774   125.46663252   179.73283163
 H     39  38  37     1.083733778321   122.01299422   179.87112653
 H     37  36   2     1.084669249774   125.30339608     6.92780086
 N      2   1   3     2.072750216993   121.54691713   183.31645016
 C     45   2   1     1.333516902744   122.43657257   305.94762669
 N     46  45   2     1.352478427923   109.82283003   164.09583627
 C     45   2   1     1.385898765551   128.16724125   105.76903753
 C     48  45   2     1.374282287947   109.02414114   197.47209707
 H     46  45   2     1.084012111496   124.84714079   345.77975963
 H     48  45   2     1.084433367608   121.60193845    16.35783246
 H     49  48  45     1.083824258702   132.33354660   180.61908581
 H     47  46  45     1.016689067847   125.52428618   180.52923147
 H     33  32   8     1.028502632305   113.13417213   178.40235959
 H     33  32   8     1.028024807484   110.68865686    55.70463702
 H     33  32   8     1.093847241479   105.70100856   298.20930542
 H     31  11  10     1.049170558994   103.29828963   137.95989226
 H     31  11  10     1.027409028247   111.80003080    21.39960449
 H     31  11  10     1.025885985626   113.41320293   258.34784188

---------------------------
INTERNAL COORDINATES (A.U.)
---------------------------
 Fe     0   0   0     0.000000000000     0.00000000     0.00000000
 Fe     1   0   0     4.793801995932     0.00000000     0.00000000
 C      1   2   0     4.090757270001    91.16787699     0.00000000
 C      3   1   2     2.835336510000   117.08164898    50.37105959
 H      3   1   2     2.090932300000   109.86665547   176.43771825
 H      3   1   2     2.079019700000   100.67297521   291.40405069
 S      2   1   3     4.225831992726    60.82112716    93.21566911
 S      1   2   3     5.013439952390    88.84652458   180.00507032
 S      2   1   3     4.278413984438    61.41147075   271.03160798
 N      1   2   3     4.414824063646   143.88663270   258.00593836
 C     10   1   2     2.697025978313   109.52945138   214.31491607
 C     11  10   1     2.925785019649   111.26861243   317.23892781
 O     12  11  10     2.386367113712   113.51249324    44.38291658
 O      4   3   1     2.860735490446   111.57387558   189.04298530
 C      4   3   1     2.930845289804   117.19427237    68.42143605
 O     15   4   3     2.709337220000   115.07904681    14.08713805
 C     15   4   3     2.928457829596   104.30944192   128.79314525
 O     17  15   4     2.701426820000   113.03680258   208.18495479
 C     14   4   3     2.689452621059   107.14674558   254.52356618
 O     12  11  10     2.375487912502   117.57803427   221.67105049
 H     17  15   4     2.080955740000   109.61283892    88.30404995
 H     15   4   3     2.070580070000   110.51553785   248.82723889
 H     10   1   2     1.929330745242   107.16142540   337.70974696
 H     10   1   2     1.932624478136   102.26002574    93.96612291
 H     16  15   4     1.868506730000   109.83471100   309.79463443
 H     18  17  15     1.859100740000   103.74035718    28.93339969
 H      4   3   1     2.047640590000   111.75028548   305.10879742
 H     19  14   4     2.099781390000   112.21262521    77.64630255
 H     19  14   4     2.079509850000   108.80188016   198.16329616
 H     11  10   1     2.078982155134   108.07580996    74.89710280
 N     11  10   1     2.873625873574   115.69930081   195.58215908
 C      8   1   2     3.405639169586   104.52850443   264.60689696
 N     32   8   1     2.847866162024   109.03131306    79.96377717
 H     32   8   1     2.075930530452   111.32648520   323.74360616
 H     32   8   1     2.074529917848   113.03977057   199.65336874
 N      2   1   3     3.890785161057   127.71249464     1.43385092
 C     36   2   1     2.520960112549   125.03662704    63.24866338
 N     37  36   2     2.555506226159   109.69867284   188.07589924
 C     38  37  36     2.609800628739   108.68741871     0.14844128
 C     39  38  37     2.594832041072   105.71062606   359.96054238
 H     40  39  38     2.049207063570   129.63458018   178.47697192
 H     38  37  36     1.921802010411   125.46663252   179.73283163
 H     39  38  37     2.047960043106   122.01299422   179.87112653
 H     37  36   2     2.049727827959   125.30339608     6.92780086
 N      2   1   3     3.916930254142   121.54691713   183.31645016
 C     45   2   1     2.519981741142   122.43657257   305.94762669
 N     46  45   2     2.555813830810   109.82283003   164.09583627
 C     45   2   1     2.618969116230   128.16724125   105.76903753
 C     48  45   2     2.597017154918   109.02414114   197.47209707
 H     46  45   2     2.048486016581   124.84714079   345.77975963
 H     48  45   2     2.049282075265   121.60193845    16.35783246
 H     49  48  45     2.048131026248   132.33354660   180.61908581
 H     47  46  45     1.921263901582   125.52428618   180.52923147
 H     33  32   8     1.943588303074   113.13417213   178.40235959
 H     33  32   8     1.942685345022   110.68865686    55.70463702
 H     33  32   8     2.067071718740   105.70100856   298.20930542
 H     31  11  10     1.982645024271   103.29828963   137.95989226
 H     31  11  10     1.941521690905   111.80003080    21.39960449
 H     31  11  10     1.938643557461   113.41320293   258.34784188

---------------------
BASIS SET INFORMATION
---------------------
There are 7 groups of distinct atoms

 Group   1 Type Fe  : 17s11p5d1f contracted to 17s7p3d1f pattern {11111111111111111/3311111/311/1}
 Group   2 Type C   : 12s8p2d1f contracted to 8s5p2d1f pattern {51111111/41111/11/1}
 Group   3 Type C   : 10s5p1d contracted to 6s2p1d pattern {511111/41/1}
 Group   4 Type H   : 6s1p contracted to 4s1p pattern {3111/1}
 Group   5 Type S   : 14s9p3d1f contracted to 5s5p2d1f pattern {73211/51111/21/1}
 Group   6 Type N   : 10s5p1d contracted to 6s2p1d pattern {511111/41/1}
 Group   7 Type O   : 10s5p1d contracted to 6s2p1d pattern {511111/41/1}

Atom   0Fe   basis set group =>   1
Atom   1Fe   basis set group =>   1
Atom   2C    basis set group =>   2
Atom   3C    basis set group =>   3
Atom   4H    basis set group =>   4
Atom   5H    basis set group =>   4
Atom   6S    basis set group =>   5
Atom   7S    basis set group =>   5
Atom   8S    basis set group =>   5
Atom   9N    basis set group =>   6
Atom  10C    basis set group =>   3
Atom  11C    basis set group =>   3
Atom  12O    basis set group =>   7
Atom  13O    basis set group =>   7
Atom  14C    basis set group =>   3
Atom  15O    basis set group =>   7
Atom  16C    basis set group =>   3
Atom  17O    basis set group =>   7
Atom  18C    basis set group =>   3
Atom  19O    basis set group =>   7
Atom  20H    basis set group =>   4
Atom  21H    basis set group =>   4
Atom  22H    basis set group =>   4
Atom  23H    basis set group =>   4
Atom  24H    basis set group =>   4
Atom  25H    basis set group =>   4
Atom  26H    basis set group =>   4
Atom  27H    basis set group =>   4
Atom  28H    basis set group =>   4
Atom  29H    basis set group =>   4
Atom  30N    basis set group =>   6
Atom  31C    basis set group =>   3
Atom  32N    basis set group =>   6
Atom  33H    basis set group =>   4
Atom  34H    basis set group =>   4
Atom  35N    basis set group =>   6
Atom  36C    basis set group =>   3
Atom  37N    basis set group =>   6
Atom  38C    basis set group =>   3
Atom  39C    basis set group =>   3
Atom  40H    basis set group =>   4
Atom  41H    basis set group =>   4
Atom  42H    basis set group =>   4
Atom  43H    basis set group =>   4
Atom  44N    basis set group =>   6
Atom  45C    basis set group =>   3
Atom  46N    basis set group =>   6
Atom  47C    basis set group =>   3
Atom  48C    basis set group =>   3
Atom  49H    basis set group =>   4
Atom  50H    basis set group =>   4
Atom  51H    basis set group =>   4
Atom  52H    basis set group =>   4
Atom  53H    basis set group =>   4
Atom  54H    basis set group =>   4
Atom  55H    basis set group =>   4
Atom  56H    basis set group =>   4
Atom  57H    basis set group =>   4
Atom  58H    basis set group =>   4
---------------------------------
AUXILIARY/J BASIS SET INFORMATION
---------------------------------
There are 6 groups of distinct atoms

 Group   1 Type Fe  : 19s5p5d3f3g contracted to 8s5p5d2f3g pattern {121111111/11111/11111/21/111}
 Group   2 Type C   : 12s5p4d2f1g contracted to 6s4p3d1f1g pattern {711111/2111/211/2/1}
 Group   3 Type H   : 5s2p1d contracted to 3s1p1d pattern {311/2/1}
 Group   4 Type S   : 14s5p5d2f1g contracted to 8s4p3d1f1g pattern {71111111/2111/311/2/1}
 Group   5 Type N   : 12s5p4d2f1g contracted to 6s4p3d1f1g pattern {711111/2111/211/2/1}
 Group   6 Type O   : 12s5p4d2f1g contracted to 6s4p3d1f1g pattern {711111/2111/211/2/1}

Atom   0Fe   basis set group =>   1
Atom   1Fe   basis set group =>   1
Atom   2C    basis set group =>   2
Atom   3C    basis set group =>   2
Atom   4H    basis set group =>   3
Atom   5H    basis set group =>   3
Atom   6S    basis set group =>   4
Atom   7S    basis set group =>   4
Atom   8S    basis set group =>   4
Atom   9N    basis set group =>   5
Atom  10C    basis set group =>   2
Atom  11C    basis set group =>   2
Atom  12O    basis set group =>   6
Atom  13O    basis set group =>   6
Atom  14C    basis set group =>   2
Atom  15O    basis set group =>   6
Atom  16C    basis set group =>   2
Atom  17O    basis set group =>   6
Atom  18C    basis set group =>   2
Atom  19O    basis set group =>   6
Atom  20H    basis set group =>   3
Atom  21H    basis set group =>   3
Atom  22H    basis set group =>   3
Atom  23H    basis set group =>   3
Atom  24H    basis set group =>   3
Atom  25H    basis set group =>   3
Atom  26H    basis set group =>   3
Atom  27H    basis set group =>   3
Atom  28H    basis set group =>   3
Atom  29H    basis set group =>   3
Atom  30N    basis set group =>   5
Atom  31C    basis set group =>   2
Atom  32N    basis set group =>   5
Atom  33H    basis set group =>   3
Atom  34H    basis set group =>   3
Atom  35N    basis set group =>   5
Atom  36C    basis set group =>   2
Atom  37N    basis set group =>   5
Atom  38C    basis set group =>   2
Atom  39C    basis set group =>   2
Atom  40H    basis set group =>   3
Atom  41H    basis set group =>   3
Atom  42H    basis set group =>   3
Atom  43H    basis set group =>   3
Atom  44N    basis set group =>   5
Atom  45C    basis set group =>   2
Atom  46N    basis set group =>   5
Atom  47C    basis set group =>   2
Atom  48C    basis set group =>   2
Atom  49H    basis set group =>   3
Atom  50H    basis set group =>   3
Atom  51H    basis set group =>   3
Atom  52H    basis set group =>   3
Atom  53H    basis set group =>   3
Atom  54H    basis set group =>   3
Atom  55H    basis set group =>   3
Atom  56H    basis set group =>   3
Atom  57H    basis set group =>   3
Atom  58H    basis set group =>   3


           ************************************************************
           *        Program running with 32 parallel MPI-processes    *
           *              working on a common directory               *
           ************************************************************
------------------------------------------------------------------------------
                           ORCA GTO INTEGRAL CALCULATION
                           -- RI-GTO INTEGRALS CHOSEN --
------------------------------------------------------------------------------

                         BASIS SET STATISTICS AND STARTUP INFO

Gaussian basis set:
 # of primitive gaussian shells          ...  768
 # of primitive gaussian functions       ... 1408
 # of contracted shells                  ...  476
 # of contracted basis functions         ...  892
 Highest angular momentum                ...    3
 Maximum contraction depth               ...    7
Auxiliary gaussian basis set:
 # of primitive gaussian shells          ...  999
 # of primitive gaussian functions       ... 2713
 # of contracted shells                  ...  627
 # of contracted aux-basis functions     ... 1913
 Highest angular momentum                ...    4
 Maximum contraction depth               ...   12
Ratio of auxiliary to basis functions    ...  2.14
Integral package used                  ... LIBINT
 One Electron integrals                  ... done
 Ordering auxiliary basis shells         ... done
 Integral threshhold             Thresh  ...  1.000e-12
 Primitive cut-off               TCut    ...  1.000e-14
 Pre-screening matrix                    ... done
 Shell pair data                         ... 
 Ordering of the shell pairs             ... done (   0.018 sec) 61144 of 113526 pairs
 Determination of significant pairs      ... done (   0.000 sec)
 Creation of shell pair data             ... done (   0.018 sec)
 Storage of shell pair data              ... done (   0.042 sec)
 Shell pair data done in (   0.078 sec)
 Computing two index integrals           ... done
 Cholesky decomposition of the V-matrix  ... done


Timings:
 Total evaluation time                   ...   2.772 sec (  0.046 min)
 One electron matrix time                ...   0.871 sec (  0.015 min) = 31.4%
 Schwartz matrix evaluation time         ...   0.859 sec (  0.014 min) = 31.0%
 Two index repulsion integral time       ...   0.398 sec (  0.007 min) = 14.3%
 Cholesky decomposition of V             ...   0.542 sec (  0.009 min) = 19.5%
 Three index repulsion integral time     ...   0.000 sec (  0.000 min) =  0.0%



           ************************************************************
           *        Program running with 32 parallel MPI-processes    *
           *              working on a common directory               *
           ************************************************************
-------------------------------------------------------------------------------
                                 ORCA SCF
-------------------------------------------------------------------------------

------------
SCF SETTINGS
------------
Hamiltonian:
 Density Functional     Method          .... DFT(GTOs)
 Exchange Functional    Exchange        .... B88
   X-Alpha parameter    XAlpha          ....  0.666667
   Becke's b parameter  XBeta           ....  0.004200
 Correlation Functional Correlation     .... P86
 LDA part of GGA corr.  LDAOpt          .... PW91-LDA
 Gradients option       PostSCFGGA      .... off
   Density functional embedding theory  .... OFF
 RI-approximation to the Coulomb term is turned on
   Number of auxiliary basis functions  .... 1913


General Settings:
 Integral files         IntName         .... 5-dAdo_neutralbp86_sbdft_aba
 Hartree-Fock type      HFTyp           .... UHF
 Total Charge           Charge          ....    0
 Multiplicity           Mult            ....   10
 Number of Electrons    NEL             ....  301
 Basis Dimension        Dim             ....  892
 Nuclear Repulsion      ENuc            ....   5658.6923886257 Eh

Convergence Acceleration:
 DIIS                   CNVDIIS         .... on
   Start iteration      DIISMaxIt       ....     0
   Startup error        DIISStart       ....  0.200000
   # of expansion vecs  DIISMaxEq       ....    15
   Bias factor          DIISBfac        ....   1.050
   Max. coefficient     DIISMaxC        ....  10.000
 Newton-Raphson         CNVNR           .... off
 SOSCF                  CNVSOSCF        .... off
 Level Shifting         CNVShift        .... on
   Level shift para.    LevelShift      ....    0.2500
   Turn off err/grad.   ShiftErr        ....    0.0000
 Zerner damping         CNVZerner       .... off
 Static damping         CNVDamp         .... on
   Fraction old density DampFac         ....    0.9200
   Max. Damping (<1)    DampMax         ....    0.9800
   Min. Damping (>=0)   DampMin         ....    0.0000
   Turn off err/grad.   DampErr         ....    0.0030
 Fernandez-Rico         CNVRico         .... off

SCF Procedure:
 Maximum # iterations   MaxIter         ....  3000
 SCF integral mode      SCFMode         .... Direct
   Integral package                     .... LIBINT
 Reset frequency        DirectResetFreq ....     1
 Integral Threshold     Thresh          ....  1.000e-12 Eh
 Primitive CutOff       TCut            ....  1.000e-14 Eh

Convergence Tolerance:
 Convergence Check Mode ConvCheckMode   .... Total+1el-Energy
 Convergence forced     ConvForced      .... 1
 Energy Change          TolE            ....  1.000e-09 Eh
 1-El. energy change                    ....  1.000e-06 Eh
 DIIS Error             TolErr          ....  1.000e-08


The Flip-Spin feature is operative for generating broken symmetry solutions
 Fe0
We will now do a high-spin calculation with                 Ms=  4.5
and then try to converge to the broken symmetry state with Ms=  0.5


Diagonalization of the overlap matrix:
Smallest eigenvalue                        ... 1.032e-04
Time for diagonalization                   ...    0.561 sec
Threshold for overlap eigenvalues          ... 1.000e-08
Number of eigenvalues below threshold      ... 0
Time for construction of square roots      ...    0.335 sec
Total time needed                          ...    0.904 sec

-------------------
DFT GRID GENERATION
-------------------

General Integration Accuracy     IntAcc      ...  5.670
Radial Grid Type                 RadialGrid  ... Gauss-Chebyshev
Angular Grid (max. acc.)         AngularGrid ... Lebedev-770
Angular grid pruning method      GridPruning ... 3 (G Style)
Weight generation scheme         WeightScheme... Becke
Basis function cutoff            BFCut       ...    1.0000e-12
Integration weight cutoff        WCut        ...    1.0000e-14
Grids for H and He will be reduced by one unit

SpecialGrid => Setting IntAcc for atom type =  26 to   7.0000
SpecialGrid => Setting IntAcc for atom type =  26 to   7.0000
# of grid points (after initial pruning)     ... 1323408 (   0.0 sec)
# of grid points (after weights+screening)   ... 1123481 (   1.7 sec)
nearest neighbour list constructed           ...    0.0 sec
Grid point re-assignment to atoms done       ...    0.5 sec
Grid point division into batches done        ...   27.1 sec
Reduced shell lists constructed in   28.7 sec

Total number of grid points                  ...  1123481
Total number of batches                      ...    17588
Average number of points per batch           ...       63
Average number of grid points per atom       ...    19042
Average number of shells per batch           ...   201.67 (42.37%)
Average number of basis functions per batch  ...   444.15 (49.79%)
Average number of large shells per batch     ...   138.26 (68.56%)
Average number of large basis fcns per batch ...   311.09 (70.04%)
Maximum spatial batch extension              ...   2.59,  3.38,  3.66 au
Average spatial batch extension              ...   0.02,  0.02,  0.02 au

Time for grid setup =   31.389 sec

------------------------------
INITIAL GUESS: MODEL POTENTIAL
------------------------------
Loading Hartree-Fock densities                     ... done
Calculating cut-offs                               ... done
Setting up the integral package                    ... done
Initializing the effective Hamiltonian             ... done
Starting the Coulomb interaction                   ... done (   0.3 sec)
Reading the grid                                   ... done
Mapping shells                                     ... done
Starting the XC term evaluation                    ... done (   2.0 sec)
  promolecular density results
     # of electrons  =    300.986283767
     EX              =   -351.400219012
     EC              =    -12.286347238
     EX+EC           =   -363.686566249
Transforming the Hamiltonian                       ... done (   0.7 sec)
Diagonalizing the Hamiltonian                      ... done (   0.5 sec)
Back transforming the eigenvectors                 ... done (   0.1 sec)
Now organizing SCF variables                       ... done
                      ------------------
                      INITIAL GUESS DONE (  35.6 sec)
                      ------------------

--------------------
CPCM SOLVATION MODEL
--------------------
CPCM parameters:
  Epsilon                                         ...      20.0000
  Refrac                                          ...       1.0000
  Rsolv                                           ...       1.3000
  Surface type                                    ...    GEPOL SES
  Epsilon function type                           ...         CPCM
Radii:
 Radius for Fe used is    4.2009 Bohr (=   2.2230 Ang.)
 Radius for C  used is    3.7795 Bohr (=   2.0000 Ang.)
 Radius for H  used is    2.4566 Bohr (=   1.3000 Ang.)
 Radius for S  used is    4.0818 Bohr (=   2.1600 Ang.)
 Radius for N  used is    3.4582 Bohr (=   1.8300 Ang.)
 Radius for O  used is    3.2503 Bohr (=   1.7200 Ang.)
Calculating surface                               ...        done! (  0.3s)
GEPOL surface points                              ...         1887
GEPOL Volume                                      ...    3801.4806
GEPOL Surface-area                                ...    1575.7127
Calculating surface distance matrix               ...        done! (  0.0s)
Performing Cholesky decomposition & store         ...        done! (  0.4s)
Overall time for CPCM initialization              ...                 0.7s
--------------
SCF ITERATIONS
--------------
ITER       Energy         Delta-E        Max-DP      RMS-DP      [F,P]     Damp
  0  -5031.9007750705   0.000000000000 1.18356463  0.00166771  0.2314421 0.9200
  1  -5032.0978253607  -0.197050290252 1.74917583  0.00256512  0.1935537 0.9200
                               ***Turning on DIIS***
  2  -5032.2362780521  -0.138452691396 1.16199312  0.00183226  0.1539838 0.9200
  3  -5032.3170464149  -0.080768362750 0.23531229  0.00052741  0.1195406 0.9200
  4  -5032.3816774533  -0.064631038387 0.07768729  0.00022576  0.0951404 0.9200
  5  -5032.4327226623  -0.051045209060 0.17430125  0.00027253  0.0799204 0.9200
  6  -5032.4743895490  -0.041666886625 0.20356831  0.00030056  0.0704082 0.9200
  7  -5032.5104693127  -0.036079763733 0.21176642  0.00030844  0.0637451 0.9200
  8  -5032.5426260164  -0.032156703714 0.21225202  0.00030730  0.0585138 0.9200
  9  -5032.5716436060  -0.029017589562 0.20763354  0.00029967  0.0540100 0.9200
 10  -5032.5979727622  -0.026329156219 0.19907592  0.00028688  0.0499113 0.9200
 11  -5032.6219260071  -0.023953244950 0.18800581  0.00027075  0.0460988 0.9200
 12  -5032.6437521115  -0.021826104317 0.17574258  0.00025300  0.0425424 0.9200
 13  -5032.6636665959  -0.019914484462 0.16324272  0.00023493  0.0392374 0.9200
 14  -5032.6818592990  -0.018192703054 0.15110482  0.00021739  0.0361791 0.9200
 15  -5032.6984938416  -0.016634542615 0.13964252  0.00020081  0.0333572 0.9200
 16  -5032.7137112035  -0.015217361872 0.12897147  0.00018537  0.0307559 0.9200
 17  -5032.7276361058  -0.013924902311 0.11867065  0.00017046  0.0283577 0.9200
 18  -5032.7404021005  -0.012765994757 0.10981478  0.00015762  0.0261087 0.9200
 19  -5032.7520989739  -0.011696873383 0.10194270  0.00014624  0.0239945 0.9200
 20  -5032.7628072781  -0.010708304233 0.09426369  0.00013518  0.0220201 0.9200
 21  -5032.7726083888  -0.009801110675 0.08674441  0.00012435  0.0202011 0.9200
 22  -5032.7815840550  -0.008975666201 0.07969924  0.00011422  0.0185419 0.9200
 23  -5032.7898090502  -0.008224995203 0.07334505  0.00010508  0.0170328 0.9200
 24  -5032.7973491330  -0.007540082807 0.06765943  0.00009691  0.0156563 0.9200
 25  -5032.8042627809  -0.006913647833 0.06248349  0.00008948  0.0143951 0.9200
 26  -5032.8106031922  -0.006340411377 0.05767335  0.00008258  0.0132350 0.9200
 27  -5032.8164192943  -0.005816102058 0.05316024  0.00007611  0.0121662 0.9200
 28  -5032.8217560195  -0.005336725171 0.04893548  0.00007005  0.0111815 0.9200
 29  -5032.8266543740  -0.004898354492 0.04501332  0.00006443  0.0102752 0.9200
 30  -5032.8311515272  -0.004497153233 0.04140161  0.00005926  0.0094418 0.9200
 31  -5032.8352811016  -0.004129574383 0.03809136  0.00005452  0.0086757 0.9200
 32  -5032.8390736269  -0.003792525365 0.03506013  0.00005017  0.0079715 0.9200
 33  -5032.8425569883  -0.003483361358 0.03228666  0.00004620  0.0073241 0.9200
 34  -5032.8457567245  -0.003199736208 0.02973900  0.00004255  0.0067286 0.9200
 35  -5032.8486962544  -0.002939529930 0.02738318  0.00003917  0.0061809 0.9200
 36  -5032.8513970589  -0.002700804444 0.02519997  0.00003605  0.0056774 0.9200
 37  -5032.8538788306  -0.002481771668 0.02318443  0.00003316  0.0052149 0.9200
 38  -5032.8561595885  -0.002280757948 0.02133381  0.00003052  0.0047905 0.9200
 39  -5032.8582558102  -0.002096221727 0.01963849  0.00002809  0.0044009 0.9200
 40  -5032.8601825687  -0.001926758436 0.01808258  0.00002586  0.0040431 0.9200
 41  -5032.8619536831  -0.001771114401 0.01664923  0.00002381  0.0037144 0.9200
 42  -5032.8635818368  -0.001628153766 0.01532546  0.00002192  0.0034123 0.9200
 43  -5032.8650786705  -0.001496833666 0.01410283  0.00002017  0.0031347 0.9200
 44  -5032.8664548710  -0.001376200459 0.16219594  0.00023193  0.0028795 0.0000
 45  -5032.8822219982  -0.015767127246 0.00023798  0.00000055  0.0000517 0.0000
 46  -5032.8822220065  -0.000000008281 0.00016112  0.00000038  0.0001599 0.0000
 47  -5032.8822220601  -0.000000053584 0.00014601  0.00000032  0.0000457 0.0000
 48  -5032.8822220750  -0.000000014898 0.00006353  0.00000014  0.0000253 0.0000
 49  -5032.8822220812  -0.000000006258 0.00004395  0.00000011  0.0000258 0.0000
 50  -5032.8822220861  -0.000000004899 0.00002387  0.00000009  0.0000067 0.0000
[...]
             ----------           ----------           ----------
 A(Tot)          0.9427               1.1757              -1.2690    A(iso)=    0.2831
 Orientation: 
  X           0.6589871            0.6436216            0.3892137
  Y           0.2914273           -0.6955311            0.6567394
  Z           0.6934019           -0.3193552           -0.6459149

Notes:  (1) The A matrix conforms to the "SAI" spin Hamiltonian convention.
        (2) Tensor is right-handed.

 RHO(0)=    119.920935062 a.u.**-3

 -----------------------------------------------------------
 Nucleus  14C : A:ISTP=   13 I=  0.5 P=134.1903 MHz/au**3
                Q:ISTP=   13 I=  0.5 Q=  0.0000 barn     
 -----------------------------------------------------------
 Raw HFC matrix (all values in MHz): 
 ------------------------------
                 2.5694               0.7727               0.1688
                 0.7727               1.7031              -0.6700
                 0.1688              -0.6700               2.1371

 A(FC)           2.1365               2.1365               2.1365
 A(SD)          -1.2446               0.3057               0.9390
             ----------           ----------           ----------
 A(Tot)          0.8919               2.4422               3.0755    A(iso)=    2.1365
 Orientation: 
  X          -0.4071450            0.4770630            0.7788734
  Y           0.7801335           -0.2618410            0.5681823
  Z           0.4749997            0.8389578           -0.2655656

Notes:  (1) The A matrix conforms to the "SAI" spin Hamiltonian convention.
        (2) Tensor is right-handed.

 RHO(0)=    119.787865780 a.u.**-3

 -----------------------------------------------------------
 Nucleus  16C : A:ISTP=   13 I=  0.5 P=134.1903 MHz/au**3
                Q:ISTP=   13 I=  0.5 Q=  0.0000 barn     
 -----------------------------------------------------------
 Raw HFC matrix (all values in MHz): 
 ------------------------------
                 0.0699               0.1673              -0.1085
                 0.1673              -0.2963              -0.1706
                -0.1085              -0.1706               0.0301

 A(FC)          -0.0654              -0.0654              -0.0654
 A(SD)           0.0063               0.3273              -0.3336
             ----------           ----------           ----------
 A(Tot)         -0.0592               0.2619              -0.3990    A(iso)=   -0.0654
 Orientation: 
  X          -0.6786464            0.6875217            0.2583659
  Y           0.0482715            0.3927657           -0.9183708
  Z          -0.7328772           -0.6107773           -0.2997367

Notes:  (1) The A matrix conforms to the "SAI" spin Hamiltonian convention.
        (2) Tensor is right-handed.

 RHO(0)=    119.786270666 a.u.**-3

 -----------------------------------------------------------
 Nucleus  18C : A:ISTP=   13 I=  0.5 P=134.1903 MHz/au**3
                Q:ISTP=   13 I=  0.5 Q=  0.0000 barn     
 -----------------------------------------------------------
 Raw HFC matrix (all values in MHz): 
 ------------------------------
                 0.4209               0.1370              -0.2174
                 0.1370               0.1605               0.0621
                -0.2174               0.0621               0.4765

 A(FC)           0.3526               0.3526               0.3526
 A(SD)          -0.3075              -0.0119               0.3194
             ----------           ----------           ----------
 A(Tot)          0.0451               0.3407               0.6721    A(iso)=    0.3526
 Orientation: 
  X           0.4976666            0.5378897           -0.6804430
  Y          -0.7871878            0.6095210           -0.0939123
  Z           0.3642298            0.5823734            0.7267585

Notes:  (1) The A matrix conforms to the "SAI" spin Hamiltonian convention.
        (2) Tensor is right-handed.

 RHO(0)=    119.798053219 a.u.**-3

 -----------------------------------------------------------
 Nucleus  31C : A:ISTP=   13 I=  0.5 P=134.1903 MHz/au**3
                Q:ISTP=   13 I=  0.5 Q=  0.0000 barn     
 -----------------------------------------------------------
 Raw HFC matrix (all values in MHz): 
 ------------------------------
                -2.2072               0.3695              -1.2257
                 0.3695               0.4729              -0.2874
                -1.2257              -0.2874              -0.6604

 A(FC)          -0.7982              -0.7982              -0.7982
 A(SD)           0.5587               1.5365              -2.0952
             ----------           ----------           ----------
 A(Tot)         -0.2396               0.7383              -2.8934    A(iso)=   -0.7982
 Orientation: 
  X          -0.3838716            0.2850783           -0.8782784
  Y           0.5097351            0.8585152            0.0558721
  Z           0.7699433           -0.4262417           -0.4748740

Notes:  (1) The A matrix conforms to the "SAI" spin Hamiltonian convention.
        (2) Tensor is right-handed.

 RHO(0)=    119.781921101 a.u.**-3

 -----------------------------------------------------------
 Nucleus  36C : A:ISTP=   13 I=  0.5 P=134.1903 MHz/au**3
                Q:ISTP=   13 I=  0.5 Q=  0.0000 barn     
 -----------------------------------------------------------
 Raw HFC matrix (all values in MHz): 
 ------------------------------
                 1.1596              -2.8841               0.6947
                -2.8841               7.7123              -2.8149
                 0.6947              -2.8149               9.3395

 A(FC)           6.0705               6.0705               6.0705
 A(SD)          -6.0137               0.1170               5.8966
             ----------           ----------           ----------
 A(Tot)          0.0569               6.1876              11.9671    A(iso)=    6.0705
 Orientation: 
  X           0.9298993           -0.2966263            0.2174860
  Y           0.3654943            0.6788867           -0.6368099
  Z           0.0412462            0.6716589            0.7397114

Notes:  (1) The A matrix conforms to the "SAI" spin Hamiltonian convention.
        (2) Tensor is right-handed.

 RHO(0)=    119.840809625 a.u.**-3

 -----------------------------------------------------------
 Nucleus  38C : A:ISTP=   13 I=  0.5 P=134.1903 MHz/au**3
                Q:ISTP=   13 I=  0.5 Q=  0.0000 barn     
 -----------------------------------------------------------
 Raw HFC matrix (all values in MHz): 
 ------------------------------
                 3.1693              -0.6501               0.3121
                -0.6501               3.8921              -0.4181
                 0.3121              -0.4181               2.4415

 A(FC)           3.1676               3.1676               3.1676
 A(SD)          -0.8689              -0.3747               1.2436
             ----------           ----------           ----------
 A(Tot)          2.2987               2.7930               4.4112    A(iso)=    3.1676
 Orientation: 
  X          -0.2247441           -0.8375573            0.4979839
  Y           0.1604825           -0.5358946           -0.8288922
  Z           0.9611116           -0.1063710            0.2548525

Notes:  (1) The A matrix conforms to the "SAI" spin Hamiltonian convention.
        (2) Tensor is right-handed.

 RHO(0)=    119.847156665 a.u.**-3

 -----------------------------------------------------------
 Nucleus  39C : A:ISTP=   13 I=  0.5 P=134.1903 MHz/au**3
                Q:ISTP=   13 I=  0.5 Q=  0.0000 barn     
 -----------------------------------------------------------
 Raw HFC matrix (all values in MHz): 
 ------------------------------
                 2.6885              -3.5962              -0.3968
                -3.5962               6.8965               0.7398
                -0.3968               0.7398               2.8180

 A(FC)           4.1344               4.1344               4.1344
 A(SD)          -3.5086              -1.4287               4.9373
             ----------           ----------           ----------
 A(Tot)          0.6258               2.7057               9.0716    A(iso)=    4.1344
 Orientation: 
  X           0.8668399           -0.0760257           -0.4927561
  Y           0.4984581            0.1097182            0.8599427
  Z          -0.0113134           -0.9910510            0.1330037

Notes:  (1) The A matrix conforms to the "SAI" spin Hamiltonian convention.
        (2) Tensor is right-handed.

 RHO(0)=    119.860394627 a.u.**-3

 -----------------------------------------------------------
 Nucleus  45C : A:ISTP=   13 I=  0.5 P=134.1903 MHz/au**3
                Q:ISTP=   13 I=  0.5 Q=  0.0000 barn     
 -----------------------------------------------------------
 Raw HFC matrix (all values in MHz): 
 ------------------------------
                 3.7769              -1.6797               0.5733
                -1.6797              -0.8237               0.8910
                 0.5733               0.8910               1.5312

 A(FC)           1.4948               1.4948               1.4948
 A(SD)          -3.1930               0.3355               2.8575
             ----------           ----------           ----------
 A(Tot)         -1.6982               1.8303               4.3523    A(iso)=    1.4948
 Orientation: 
  X           0.3083711           -0.0029395            0.9512616
  Y           0.9015526            0.3199464           -0.2912682
  Z          -0.3034966            0.9474311            0.1013124

Notes:  (1) The A matrix conforms to the "SAI" spin Hamiltonian convention.
        (2) Tensor is right-handed.

 RHO(0)=    119.873911885 a.u.**-3

 -----------------------------------------------------------
 Nucleus  47C : A:ISTP=   13 I=  0.5 P=134.1903 MHz/au**3
                Q:ISTP=   13 I=  0.5 Q=  0.0000 barn     
 -----------------------------------------------------------
 Raw HFC matrix (all values in MHz): 
 ------------------------------
                 2.1978               1.8520              -1.5056
                 1.8520               0.2695              -0.9643
                -1.5056              -0.9643               0.9115

 A(FC)           1.1263               1.1263               1.1263
 A(SD)          -1.1636              -1.9825               3.1461
             ----------           ----------           ----------
 A(Tot)         -0.0373              -0.8562               4.2723    A(iso)=    1.1263
 Orientation: 
  X           0.4254403            0.5023956            0.7527278
  Y           0.2034287           -0.8635596            0.4613910
  Z           0.8818261           -0.0431679           -0.4695947

Notes:  (1) The A matrix conforms to the "SAI" spin Hamiltonian convention.
        (2) Tensor is right-handed.

 RHO(0)=    119.859131040 a.u.**-3

 -----------------------------------------------------------
 Nucleus  48C : A:ISTP=   13 I=  0.5 P=134.1903 MHz/au**3
                Q:ISTP=   13 I=  0.5 Q=  0.0000 barn     
 -----------------------------------------------------------
 Raw HFC matrix (all values in MHz): 
 ------------------------------
                 3.2691               0.2909              -0.6688
                 0.2909               1.6854              -0.0849
                -0.6688              -0.0849               1.5671

 A(FC)           2.1739               2.1739               2.1739
 A(SD)          -0.8388              -0.5369               1.3757
             ----------           ----------           ----------
 A(Tot)          1.3350               1.6370               3.5496    A(iso)=    2.1739
 Orientation: 
  X           0.3329069            0.1354125            0.9331862
  Y          -0.0482330           -0.9858945            0.1602676
  Z           0.9417253           -0.0983645           -0.3216798

Notes:  (1) The A matrix conforms to the "SAI" spin Hamiltonian convention.
        (2) Tensor is right-handed.

 RHO(0)=    119.847632349 a.u.**-3

 -----------------------------------------------------------
 Nucleus   0Fe: A:ISTP=   57 I=  0.5 P= 17.2798 MHz/au**3
                Q:ISTP=   57 I=  0.5 Q=  0.1600 barn     
 -----------------------------------------------------------
 Raw HFC matrix (all values in MHz): 
 ------------------------------
                55.4716              -1.4057              10.7786
                -1.4057              48.6290              20.8651
                10.7786              20.8651             -21.0344

 A(FC)          27.6887              27.6887              27.6887
 A(SD)         -55.8796              25.9965              29.8830
             ----------           ----------           ----------
 A(Tot)        -28.1909              53.6852              57.5718    A(iso)=   27.6887
 Orientation: 
  X          -0.1276414           -0.4252714           -0.8960200
  Y          -0.2621454            0.8857485           -0.3830527
  Z           0.9565498            0.1859942           -0.2245412

Notes:  (1) The A matrix conforms to the "SAI" spin Hamiltonian convention.
        (2) Tensor is right-handed.

 RHO(0)=  11827.707209620 a.u.**-3

 -----------------------------------------------------------
 Nucleus   1Fe: A:ISTP=   57 I=  0.5 P= 17.2798 MHz/au**3
                Q:ISTP=   57 I=  0.5 Q=  0.1600 barn     
 -----------------------------------------------------------
 Raw HFC matrix (all values in MHz): 
 ------------------------------
               -49.7159              -3.0951               9.3738
                -3.0951             -49.0640              19.5835
                 9.3738              19.5835             -35.5855

 A(FC)         -44.7885             -44.7885             -44.7885
 A(SD)          24.3968              -2.2894             -22.1074
             ----------           ----------           ----------
 A(Tot)        -20.3917             -47.0779             -66.8958    A(iso)=  -44.7885
 Orientation: 
  X           0.2049475           -0.8765394           -0.4355172
  Y           0.5368551            0.4727278           -0.6987954
  Z           0.8184028           -0.0905932            0.5674590

Notes:  (1) The A matrix conforms to the "SAI" spin Hamiltonian convention.
        (2) Tensor is right-handed.

 RHO(0)=  11827.420177630 a.u.**-3


------------------------------------------------------------------------------- 
----------------------------------------------------------------------------
                           ORCA EULER ANGLE PROGRAM
----------------------------------------------------------------------------

Only g-tensor available        -->  using g-tensor as reference tensor

Reference tensor               ...  g

g-tensor ordering              ...  |g_min> --> |gx>
                                    |g_mid> --> |gy>
                                    |g_max> --> |gz>

A- and EFG-tensor ordering     ...  the axes |Ax>, |Qx>, |Ay>, etc. are assigned
                                    such that the Euler rotation is minimal. You
                                    can find the respective eigenvalues as Ax,
                                    EFGx, Ay, etc. in the tables below.
                                    The relation of |Ax>, |Ay>,  etc. to Amin, Amid, etc.
                                    (as printed in the ORCA EPR/NMR CALCULATION Output)
                                    is obtained in the detailed printout.

Euler rotation around          ...  z - y - z
   First rotation              -->  by alpha around z
   Second rotation             -->  by beta around y'
   Third rotation              -->  by gamma around z''
   Positive / Negative angle   -->  clockwise / counterclockwise rotation

Plot EFG-tensors                    (-)
Plot HFC-tensors                    (-)
Detailed Printout                   (-)

-------------------------------------------------------------------------
          Euler rotation of hyperfine tensor to g-tensor
-------------------------------------------------------------------------

-------------------------------------------------------------------
 Atom  |   Alpha    Beta    Gamma   |   Ax       Ay       Az 
       |          [degrees]         |           [MHz]         
-------------------------------------------------------------------
  4H      101.5     44.7   -109.5     -20.39     0.88     8.52
  5H       40.6     40.4    -48.5     -48.60   -20.06   -12.86
 20H     -150.9     49.1    133.2       1.55    -1.35    -0.24
 21H        9.9     42.0    -37.0       0.83    -6.17     5.03
 22H        5.9     30.1    -20.5       3.85   -23.09     5.86
 23H       -8.1     33.5     31.7       9.93   -13.87     9.47
 24H      -37.1     49.6     20.6       2.51     3.25    -5.61
 25H       15.4     39.0    -59.8       0.17    -0.81     0.70
 26H     -140.5     44.6    114.8      11.39    -9.96    -0.30
 27H       69.8     43.1    -46.8      -0.88    -0.01     0.82
 28H     -141.7     46.8    112.7       2.19     0.67     1.19
 29H      116.0     47.6   -127.7       3.90     3.39    -8.75
 33H     -119.4     44.6    141.2       1.93     4.58    -9.46
 34H       57.7     41.9    -90.8      -3.61    -0.12     1.73
 40H      -89.0     31.4    133.8      14.90    -4.97    -3.82
 41H      125.2     35.4   -156.2       0.86     1.24     4.97
 42H       50.8     46.0    -23.1       3.98    -0.05    -0.21
 43H     -154.4     14.7    160.5      -2.80    -4.04    14.47
 49H       66.9     48.2    -57.0      13.21    -4.86    -8.20
 50H       68.6     49.1    -59.2      -4.12    -4.64    11.65
 51H     -141.8     33.2    107.9       3.44    -0.38    -0.52
 52H       91.4     38.5    -92.0       4.68     0.01    -0.43
 53H     -155.6     13.9   -172.5      -0.71    -3.33     3.20
 54H     -161.7     33.4   -170.6      -0.77    -4.27     4.69
 55H     -167.6     28.1   -170.7       2.96   -10.46    19.52
 56H      -44.0     56.1     40.2       1.06    -1.72     0.93
 57H     -159.5     37.0    163.2       1.13    -2.27     0.98
 58H     -139.5     53.2    135.0       0.54    -1.92     0.49
  2C       82.4     20.4   -111.7      59.07    43.40    45.31
  3C      -65.8     39.0     96.7      -0.46     4.19     2.74
 10C      -97.1     44.0     94.2       0.86    -2.80     0.19
 11C       88.8     28.6    -59.7       1.18     0.94    -1.27
 14C      -99.8     30.9    143.7       0.89     3.08     2.44
 16C      -11.4     42.7    -27.5      -0.06    -0.40     0.26
 18C       19.8     45.1     -1.0       0.05     0.34     0.67
 31C       47.4     39.8    -85.7      -2.89    -0.24     0.74
 36C      115.2     19.7   -155.0       0.06     6.19    11.97
 38C      -15.2     37.4     49.2       4.41     2.79     2.30
 39C      -44.5     20.8     84.7       9.07     0.63     2.71
 45C      -73.5     45.0     70.2       4.35    -1.70     1.83
 47C       64.1     50.2    -36.2      -0.86    -0.04     4.27
 48C     -137.4     30.9    112.3       3.55     1.64     1.34
  0Fe       3.5     12.6     39.6      53.69    57.57   -28.19
  1Fe      60.8     34.2    -62.4     -47.08   -20.39   -66.90
-------------------------------------------------------------------


Timings for individual modules:

Sum of individual times         ...    99062.501 sec (=1651.042 min)
GTO integral calculation        ...      198.507 sec (=   3.308 min)   0.2 %
Spin-Orbit-Coupling Matrices    ...      803.737 sec (=  13.396 min)   0.8 %
SCF iterations                  ...    95199.805 sec (=1586.663 min)  96.1 %
EPR/NMR calculation             ...       32.122 sec (=   0.535 min)   0.0 %
SCF Gradient evaluation         ...     2720.150 sec (=  45.336 min)   2.7 %
Geometry relaxation             ...       53.047 sec (=   0.884 min)   0.1 %
Orbital/Density plot generation ...       55.133 sec (=   0.919 min)   0.1 %
                             ****ORCA TERMINATED NORMALLY****
TOTAL RUN TIME: 1 days 3 hours 31 minutes 46 seconds 743 msec
