mv: cannot stat '../.sub.sh': No such file or directory

                                 *****************
                                 * O   R   C   A *
                                 *****************

           --- An Ab Initio, DFT and Semiempirical electronic structure package ---

                  #######################################################
                  #                        -***-                        #
                  #          Department of theory and spectroscopy      #
                  #               Directorship: Frank Neese             #
                  #        Max Planck Institute fuer Kohlenforschung    #
                  #                Kaiser Wilhelm Platz 1               #
                  #                 D-45470 Muelheim/Ruhr               #
                  #                      Germany                        #
                  #                                                     #
                  #                  All rights reserved                #
                  #                        -***-                        #
                  #######################################################


                         Program Version 4.2.1 -  RELEASE  -


 With contributions from (in alphabetic order):
   Daniel Aravena         : Magnetic Suceptibility
   Michael Atanasov       : Ab Initio Ligand Field Theory (pilot matlab implementation)
   Alexander A. Auer      : GIAO ZORA, VPT2
   Ute Becker             : Parallelization
   Giovanni Bistoni       : ED, misc. LED, open-shell LED, HFLD
   Martin Brehm           : Molecular dynamics
   Dmytro Bykov           : SCF Hessian
   Vijay G. Chilkuri      : MRCI spin determinant printing, contributions to CSF-ICE
   Dipayan Datta          : RHF DLPNO-CCSD density
   Achintya Kumar Dutta   : EOM-CC, STEOM-CC
   Dmitry Ganyushin       : Spin-Orbit,Spin-Spin,Magnetic field MRCI
   Miquel Garcia          : C-PCM Hessian, Gaussian charge scheme
   Yang Guo               : DLPNO-NEVPT2, CIM, IAO-localization
   Andreas Hansen         : Spin unrestricted coupled pair/coupled cluster methods
   Benjamin Helmich-Paris : CASSCF linear response (MC-RPA)
   Lee Huntington         : MR-EOM, pCC
   Robert Izsak           : Overlap fitted RIJCOSX, COSX-SCS-MP3, EOM
   Christian Kollmar      : KDIIS, OOCD, Brueckner-CCSD(T), CCSD density
   Simone Kossmann        : Meta GGA functionals, TD-DFT gradient, OOMP2, MP2 Hessian
   Martin Krupicka        : AUTO-CI
   Lucas Lang             : DCDCAS
   Dagmar Lenk            : GEPOL surface, SMD
   Dimitrios Liakos       : Extrapolation schemes; Compound Job, initial MDCI parallelization
   Dimitrios Manganas     : Further ROCIS development; embedding schemes
   Dimitrios Pantazis     : SARC Basis sets
   Taras Petrenko         : DFT Hessian,TD-DFT gradient, ASA, ECA, R-Raman, ABS, FL, XAS/XES, NRVS
   Peter Pinski           : DLPNO-MP2, DLPNO-MP2 Gradient
   Christoph Reimann      : Effective Core Potentials
   Marius Retegan         : Local ZFS, SOC
   Christoph Riplinger    : Optimizer, TS searches, QM/MM, DLPNO-CCSD(T), (RO)-DLPNO pert. Triples
   Tobias Risthaus        : Range-separated hybrids, TD-DFT gradient, RPA, STAB
   Michael Roemelt        : Original ROCIS implementation
   Masaaki Saitow         : Open-shell DLPNO-CCSD energy and density
   Barbara Sandhoefer     : DKH picture change effects
   Avijit Sen             : IP-ROCIS
   Kantharuban Sivalingam : CASSCF convergence, NEVPT2, FIC-MRCI
   Bernardo de Souza      : ESD, SOC TD-DFT
   Georgi Stoychev        : AutoAux, RI-MP2 NMR
   Willem Van den Heuvel  : Paramagnetic NMR
   Boris Wezisla          : Elementary symmetry handling
   Frank Wennmohs         : Technical directorship


 We gratefully acknowledge several colleagues who have allowed us to
 interface, adapt or use parts of their codes:
   Stefan Grimme, W. Hujo, H. Kruse,             : VdW corrections, initial TS optimization,
                  C. Bannwarth                     DFT functionals, gCP, sTDA/sTD-DF
   Ed Valeev, F. Pavosevic, A. Kumar             : LibInt (2-el integral package), F12 methods
   Garnet Chan, S. Sharma, J. Yang, R. Olivares  : DMRG
   Ulf Ekstrom                                   : XCFun DFT Library
   Mihaly Kallay                                 : mrcc  (arbitrary order and MRCC methods)
   Andreas Klamt, Michael Diedenhofen            : otool_cosmo (COSMO solvation model)
   Jiri Pittner, Ondrej Demel                    : Mk-CCSD
   Frank Weinhold                                : gennbo (NPA and NBO analysis)
   Christopher J. Cramer and Donald G. Truhlar   : smd solvation model
   Lars Goerigk                                  : TD-DFT with DH, B97 family of functionals
   V. Asgeirsson, H. Jonsson                     : NEB implementation
   FAccTs GmbH                                   : IRC, NEB, NEB-TS, Multilevel, MM, QM/MM, CI optimization
   S Lehtola, MJT Oliveira, MAL Marques          : LibXC Library


 Your calculation uses the libint2 library for the computation of 2-el integrals
 For citations please refer to: http://libint.valeyev.net

 Your ORCA version has been built with support for libXC version: 4.2.3
 For citations please refer to: https://tddft.org/programs/libxc/

 This ORCA versions uses:
   CBLAS   interface :  Fast vector & matrix operations
   LAPACKE interface :  Fast linear algebra routines
   SCALAPACK package :  Parallel linear algebra routines


----- Orbital basis set information -----
Your calculation utilizes the basis: EPR-II
   V. Barone, in Recent Advances in Density Functional Methods, Part 1 (ed. D. P. Chong), World Scientific, Singapore, 1995, p. 287.

================================================================================
                                        WARNINGS
                       Please study these warnings very carefully!
================================================================================


WARNING: Geometry Optimization
  ===> : Switching off AutoStart
         For restart on a previous wavefunction, please use MOREAD

WARNING: Broken symmetry calculations need fully converged wavefunctions
  ===> : Setting SCFConvForced true
         You can overwrite this default with %scf ConvForced false 


INFO   : the flag for use of LIBINT has been found!

================================================================================
                                       INPUT FILE
================================================================================
NAME = 5-dAdo-2minusBHandHLYP_sbdft_aab.inp
|  1> !UKS BHandHLYP EPR-II Grid7 veryTightSCF verySlowConv opt
|  2> #this is a BS-DFT calculation
|  3> %pal nprocs 32 end
|  4> 
|  5> %maxcore 8000
|  6> 
|  7> #BE SURE TO ADJUST THIS LINE BEFORE SUBMITTING IT WILL BE DIFFERENT FOR EACH JOB
|  8> 
|  9> %cpcm
| 10>  epsilon 20
| 11> end
| 12> 
| 13> %scf
| 14>   maxiter 3000
| 15>   DIISMaxEq 15
| 16>   directresetfreq 1
| 17>   #guessmode cmatrix
| 18> 	flipspin 2
| 19> 	finalms 4.5
| 20> end
| 21> 
| 22> #aab conf.
| 23> 
| 24> %basis
| 25> 	NewGTO Fe "CP(PPP)" end
| 26> 	NewGTO S "def2-TZVP" end
| 27> end
| 28> 
| 29> %method
| 30> Z_solver DIIS
| 31> Z_MaxIter 128 # maximum number of CP-SCF iterations
| 32> Z_MaxDIIS 5 # for DIIS: maximum number of expansion vectors
| 33> Z_Shift 0.3 # for DIIS: level shift
| 34> Z_Tol 1e-6 # convergence tolerance on residual
| 35> End
| 36> 
| 37> %method
| 38>  SpecialGridAtoms 26
| 39>  SpecialGridIntAcc 7
| 40> end
| 41> 
| 42> # newGTO "EPR-III" end
| 43> #adjust charge and apply newGTO "EPR-III" end to the carbon radical and attached atoms. (atom 3)
| 44> 
| 45> *xyz  -2 10
| 46>   Fe  -0.70517497012597     -1.07534324561852      0.45446970515623
| 47>   Fe  -2.08913061707299     -3.39246781688020      1.65277853996235
| 48>   C   1.42836624293416     -1.45014887944105      0.56301963565503 newGTO "EPR-III" end
| 49>   C   1.98116560472274     -2.66778749807828     -0.08632622724847
| 50>   H   1.93138780570586     -0.56896072252216      0.16895848510246
| 51>   H   1.60852178490362     -1.49968447717877      1.63238906828163
| 52>   S   -1.16030434907796     -1.61074116239446      2.82435561556593
| 53>   S   -3.31145426468432     -0.61924085511487      0.32189485587450
| 54>   S   -1.54784128418888     -3.17433650972524     -0.60888656243248
| 55>   N   -0.15945538712374      1.00655064044259      1.02444415744282
| 56>   C   -0.23690973187088      1.91495210413781     -0.10593205591117
| 57>   C   -0.10313080289134      1.18551209911168     -1.42866687031492
| 58>   O   -0.27516167889617     -0.06302647757334     -1.40166642184391
| 59>   O   3.42392229027382     -2.82640509830760      0.15790847551984
| 60>   C   1.83533636558103     -2.74435103050357     -1.59738527295857
| 61>   O   1.91999619207646     -1.49545802448325     -2.24802626596491
| 62>   C   3.05427063180788     -3.53896247286467     -2.02220218422722
| 63>   O   3.39458951794283     -3.37928259063561     -3.37439293376588
| 64>   C   4.10648546424886     -3.03561618589597     -1.05187157921815
| 65>   O   0.14093622185516      1.84415538323526     -2.43482717805205
| 66>   H   2.87291444068830     -4.59452561765977     -1.85423682209823
| 67>   H   0.90138721906639     -3.22854736331704     -1.84616814139280
| 68>   H   -0.80181922771576      1.27884648266661      1.74557373601104
| 69>   H   0.76135409841690      0.96374454212686      1.41997977919863
| 70>   H   1.13718256963860     -0.97719924843132     -2.01210061392459
| 71>   H   3.15495111602264     -2.48117438103309     -3.60771667232446
| 72>   H   1.50968542388967     -3.55026686902445      0.33550320881394
| 73>   H   4.53162105077540     -2.10544000607510     -1.43040989153183
| 74>   H   4.91334564573588     -3.74431974276701     -0.89740660931213
| 75>   H   -1.21422356814811      2.38381626705741     -0.11304445460512
| 76>   H   0.50417009967612      2.70409242790732     -0.06471563552158
| 77>   C   -3.72567802553649     -0.69308984377898     -1.43826280249953
| 78>   H   -4.80019132037357     -0.63774534596366     -1.58457046794979
| 79>   H   -3.35509368417493     -1.63179258822744     -1.83320218618314
| 80>   H   -3.26449326191491      0.11842603844984     -1.99098574312194
| 81>   N   -1.07678336297608     -5.14524000886982      2.43864009796537
| 82>   C   0.11175784456188     -5.02831526915982      2.96667510746963
| 83>   N   0.64934008316043     -6.23176632933041      3.18338120457625
| 84>   C   -0.24424457578271     -7.17781896813145      2.76642988944988
| 85>   C   -1.31299379990128     -6.48767768692063      2.30485439576997
| 86>   H   -2.22140640980896     -6.86225655116150      1.88326675004361
| 87>   H   1.54978270896287     -6.40439286235878      3.58062577378126
| 88>   H   -0.04174277149196     -8.22447259978175      2.83500909616003
| 89>   H   0.59145446050662     -4.09834239696851      3.18993237153401
| 90>   N   -4.07218911587619     -4.00446383609726      2.13337181564804
| 91>   C   -5.12648064514140     -3.42398310337642      1.62148390029542
| 92>   N   -6.24035347737312     -4.00979796867941      2.06409374240478
| 93>   C   -4.53295592766240     -5.00883628376330      2.94510266199735
| 94>   C   -5.88473072997316     -5.02269876711100      2.91096533554071
| 95>   H   -5.08974990338605     -2.58232963626915      0.95889937398543
| 96>   H   -3.86778273705451     -5.64048033664344      3.49348991267700
| 97>   H   -6.60744350326426     -5.64102958113602      3.39713154624745
| 98>   H   -7.17242574966599     -3.74728974588105      1.81703535427224
| 99> *
|100> 
|101> %eprnmr
|102>     gtensor true
|103>     nuclei = all H {aiso, adip, rho} # this compute the hyperfine coupling for all hydrogens.
|104>     nuclei = all C {aiso, adip, rho}
|105>     nuclei = all Fe {aiso, adip, rho}
|106> end
|107> 
|108> %plots
|109>   dim1 150
|110>   dim2 150
|111>   dim3 150
|112>   min1 -20.0
|113>   max1 20.0
|114>   min2 -20.0
|115>   max2 20.0
|116>   min3 -20.0
|117>   max3 20.0
|118>   Format Gaussian_Cube
|119>   MO("5-dAdo_2minusBHandHLYP_sbdft_aab_MO144.cube", 144, 1);
|120>   MO("5-dAdo_2minusBHandHLYP_sbdft_aab_MO143.cube", 143, 1);
|121>   MO("5-dAdo_2minusBHandHLYP_sbdft_aab_MO142.cube", 142, 1);
|122>   MO("5-dAdo_2minusBHandHLYP_sbdft_aab_MO141.cube", 141, 1);
|123>   MO("5-dAdo_2minusBHandHLYP_sbdft_aab_MO140.cube", 140, 1);
|124>   MO("5-dAdo_2minusBHandHLYP_sbdft_aab_MO139.cube", 139, 1);
|125>   MO("5-dAdo_2minusBHandHLYP_sbdft_aab_MO138.cube", 138, 1);
|126>   MO("5-dAdo_2minusBHandHLYP_sbdft_aab_MO137.cube", 137, 1);
|127>   MO("5-dAdo_2minusBHandHLYP_sbdft_aab_MO136.cube", 136, 1);
|128>   MO("5-dAdo_2minusBHandHLYP_sbdft_aab_MO135.cube", 135, 1);
|129>   MO("5-dAdo_2minusBHandHLYP_sbdft_aab_MO134.cube", 134, 1);
|130>   MO("5-dAdo_2minusBHandHLYP_sbdft_aab_MO133.cube", 133, 1);
|131>   MO("5-dAdo_2minusBHandHLYP_sbdft_aab_MO132.cube", 132, 1);
|132>   MO("5-dAdo_2minusBHandHLYP_sbdft_aab_MO131.cube", 131, 1);
|133>   MO("5-dAdo_2minusBHandHLYP_sbdft_aab_MO130.cube", 130, 1);
|134> End
|135> 
|136>                          ****END OF INPUT****
================================================================================

                       *****************************
                       * Geometry Optimization Run *
                       *****************************

Geometry optimization settings:
Update method            Update   .... BFGS
Choice of coordinates    CoordSys .... Z-matrix Internals
Initial Hessian          InHess   .... Almoef's Model

Convergence Tolerances:
Energy Change            TolE     ....  5.0000e-06 Eh
Max. Gradient            TolMAXG  ....  3.0000e-04 Eh/bohr
RMS Gradient             TolRMSG  ....  1.0000e-04 Eh/bohr
Max. Displacement        TolMAXD  ....  4.0000e-03 bohr
RMS Displacement         TolRMSD  ....  2.0000e-03 bohr
Strict Convergence                ....  False
------------------------------------------------------------------------------
                        ORCA OPTIMIZATION COORDINATE SETUP
------------------------------------------------------------------------------

The optimization will be done in new redundant internal coordinates
Making redundant internal coordinates   ...  (new redundants) done
Evaluating the initial hessian          ...  (Almloef) done
Evaluating the coordinates              ...  done
Calculating the B-matrix                .... done
Calculating the G-matrix                .... done
Diagonalizing the G-matrix              .... done
Small eigenvalue found = 3.719e-03
Small eigenvalue found = 6.312e-03
Small eigenvalue found = 8.061e-03
Small eigenvalue found = 1.353e-02
Small eigenvalue found = 1.466e-02
Small eigenvalue found = 1.994e-02
Small eigenvalue found = 2.717e-02
The first mode is                       ....  232
The number of degrees of freedom        ....  153

    -----------------------------------------------------------------
                    Redundant Internal Coordinates


    -----------------------------------------------------------------
         Definition                    Initial Value    Approx d2E/dq
    -----------------------------------------------------------------
      1. B(Fe  1,Fe  0)                  2.9530         0.205251   
      2. B(C   2,Fe  0)                  2.1689         0.361517   
      3. B(C   3,C   2)                  1.4866         0.438200   
      4. B(H   4,C   2)                  1.0885         0.362105   
      5. B(H   5,C   2)                  1.0856         0.366009   
      6. B(S   6,Fe  1)                  2.3259         0.547577   
      7. B(S   6,Fe  0)                  2.4719         0.320312   
      8. B(S   7,Fe  0)                  2.6492         0.166973   
      9. B(S   8,Fe  1)                  2.3357         0.528148   
     10. B(S   8,Fe  0)                  2.4993         0.289592   
     11. B(N   9,Fe  0)                  2.2264         0.262144   
     12. B(C  10,N   9)                  1.4522         0.445254   
     13. B(C  11,C  10)                  1.5164         0.392648   
     14. B(O  12,C  11)                  1.2606         0.900092   
     15. B(O  12,Fe  0)                  2.1575         0.337640   
     16. B(O  13,C   3)                  1.4719         0.414268   
     17. B(C  14,C   3)                  1.5200         0.387541   
     18. B(O  15,C  14)                  1.4108         0.518513   
     19. B(C  16,C  14)                  1.5158         0.393566   
     20. B(O  17,C  16)                  1.4035         0.532576   
     21. B(C  18,C  16)                  1.5173         0.391485   
     22. B(C  18,O  13)                  1.4047         0.530146   
     23. B(O  19,C  11)                  1.2271         1.018112   
     24. B(H  20,C  16)                  1.0841         0.367963   
     25. B(H  21,C  14)                  1.0810         0.372180   
     26. B(H  22,N   9)                  1.0034         0.443334   
     27. B(H  23,N   9)                  1.0031         0.443848   
     28. B(H  24,O  15)                  0.9680         0.504872   
     29. B(H  25,O  17)                  0.9584         0.523087   
     30. B(H  26,C   3)                  1.0858         0.365673   
     31. B(H  27,C  18)                  1.0905         0.359397   
     32. B(H  28,C  18)                  1.0850         0.366826   
     33. B(H  29,C  10)                  1.0840         0.368144   
     34. B(H  30,C  10)                  1.0833         0.369010   
     35. B(C  31,S   7)                  1.8097         0.360433   
     36. B(H  32,C  31)                  1.0858         0.365646   
     37. B(H  33,C  31)                  1.0837         0.368489   
     38. B(H  34,C  31)                  1.0848         0.367069   
     39. B(N  35,Fe  1)                  2.1713         0.320961   
     40. B(C  36,N  35)                  1.3058         0.762440   
     41. B(N  37,C  36)                  1.3358         0.682990   
     42. B(C  38,N  37)                  1.3665         0.610025   
     43. B(C  39,C  38)                  1.3534         0.714829   
     44. B(C  39,N  35)                  1.3696         0.603123   
     45. B(H  40,C  39)                  1.0692         0.388647   
     46. B(H  41,N  37)                  0.9992         0.450221   
     47. B(H  42,C  38)                  1.0683         0.390029   
     48. B(H  43,C  36)                  1.0700         0.387619   
     49. B(N  44,Fe  1)                  2.1303         0.373211   
     50. B(C  45,N  44)                  1.3079         0.756680   
     51. B(N  46,C  45)                  1.3341         0.687190   
     52. B(C  47,N  44)                  1.3711         0.599782   
     53. B(C  48,C  47)                  1.3523         0.717668   
     54. B(C  48,N  46)                  1.3673         0.608167   
     55. B(H  49,C  45)                  1.0718         0.385004   
     56. B(H  50,C  47)                  1.0687         0.389383   
     57. B(H  51,C  48)                  1.0682         0.390156   
     58. B(H  52,N  46)                  0.9994         0.449967   
     59. A(S   6,Fe  0,S   8)           99.4347         0.457168   
     60. A(Fe  1,Fe  0,C   2)          107.7646         0.442033   
     61. A(Fe  1,Fe  0,O  12)          144.1620         0.434589   
     62. A(S   7,Fe  0,S   8)           77.9716         0.406694   
     63. A(Fe  1,Fe  0,S   6)           49.8123         0.449837   
     64. A(C   2,Fe  0,S   6)           95.4920         0.457520   
     65. A(S   6,Fe  0,N   9)           90.1274         0.429665   
     66. A(S   8,Fe  0,N   9)          167.6526         0.421979   
     67. A(C   2,Fe  0,O  12)           85.8758         0.441948   
     68. A(S   8,Fe  0,O  12)           95.4641         0.441610   
     69. A(S   7,Fe  0,N   9)           95.3339         0.382962   
     70. A(S   7,Fe  0,O  12)           94.1430         0.400293   
     71. A(Fe  1,Fe  0,N   9)          138.1345         0.415349   
     72. A(Fe  1,Fe  0,S   7)           72.2019         0.400368   
     73. A(S   6,Fe  0,O  12)          164.3942         0.449749   
     74. A(C   2,Fe  0,S   8)          101.9948         0.449206   
     75. A(C   2,Fe  0,N   9)           84.7021         0.422298   
     76. A(S   6,Fe  0,S   7)           84.4986         0.414027   
     77. A(N   9,Fe  0,O  12)           74.4932         0.415270   
     78. A(Fe  1,Fe  0,S   8)           49.8834         0.441696   
     79. A(S   6,Fe  1,N  44)          118.5664         0.505638   
     80. A(N  35,Fe  1,N  44)           96.9185         0.438398   
     81. A(Fe  0,Fe  1,N  44)          138.8720         0.442513   
     82. A(Fe  0,Fe  1,S   8)           54.9139         0.493080   
     83. A(S   8,Fe  1,N  44)          117.4519         0.502245   
     84. A(S   8,Fe  1,N  35)          108.5293         0.488376   
     85. A(S   6,Fe  1,N  35)          104.4704         0.491655   
     86. A(S   6,Fe  1,S   8)          108.8838         0.565234   
     87. A(Fe  0,Fe  1,S   6)           54.2795         0.496398   
     88. A(Fe  0,Fe  1,N  35)          124.1784         0.430649   
     89. A(C   3,C   2,H   5)          109.3417         0.333873   
     90. A(H   4,C   2,H   5)          108.4738         0.291839   
     91. A(Fe  0,C   2,H   4)          107.2519         0.359105   
     92. A(Fe  0,C   2,H   5)          102.7345         0.359761   
     93. A(Fe  0,C   2,C   3)          119.0439         0.415077   
     94. A(C   3,C   2,H   4)          109.4579         0.333279   
     95. A(O  13,C   3,H  26)          105.8775         0.328740   
     96. A(C   2,C   3,H  26)          109.5445         0.333822   
     97. A(O  13,C   3,C  14)          104.6891         0.369860   
     98. A(C   2,C   3,O  13)          112.3523         0.377779   
     99. A(C   2,C   3,C  14)          116.0923         0.375813   
    100. A(C  14,C   3,H  26)          107.6743         0.327108   
    101. A(Fe  0,S   6,Fe  1)           75.9082         0.514270   
    102. A(Fe  0,S   7,C  31)          105.4753         0.383470   
    103. A(Fe  0,S   8,Fe  1)           75.2026         0.501290   
    104. A(C  10,N   9,H  23)          112.4939         0.340643   
    105. A(Fe  0,N   9,H  23)          106.6216         0.347414   
    106. A(H  22,N   9,H  23)          108.4133         0.305680   
    107. A(C  10,N   9,H  22)          110.8250         0.340577   
    108. A(Fe  0,N   9,H  22)          106.3096         0.347346   
    109. A(Fe  0,N   9,C  10)          111.8747         0.389033   
    110. A(N   9,C  10,C  11)          111.9225         0.375330   
    111. A(H  29,C  10,H  30)          107.5733         0.292976   
    112. A(C  11,C  10,H  30)          108.8582         0.328306   
    113. A(N   9,C  10,H  30)          112.9266         0.333188   
    114. A(C  11,C  10,H  29)          106.3720         0.328179   
    115. A(N   9,C  10,H  29)          108.8903         0.333058   
    116. A(O  12,C  11,O  19)          125.1917         0.502164   
    117. A(C  10,C  11,O  19)          118.3317         0.434275   
    118. A(C  10,C  11,O  12)          116.4673         0.424779   
    119. A(Fe  0,O  12,C  11)          120.6857         0.461591   
    120. A(C   3,O  13,C  18)          110.4532         0.388021   
    121. A(C  16,C  14,H  21)          113.2939         0.328897   
    122. A(O  15,C  14,H  21)          110.0124         0.342243   
    123. A(C   3,C  14,H  21)          109.5258         0.328061   
    124. A(O  15,C  14,C  16)          106.6520         0.385531   
    125. A(C   3,C  14,C  16)          103.1713         0.368924   
    126. A(C   3,C  14,O  15)          114.0878         0.384497   
    127. A(C  14,O  15,H  24)          108.2415         0.357177   
    128. A(C  18,C  16,H  20)          109.8731         0.327992   
    129. A(O  17,C  16,H  20)          107.4944         0.343126   
    130. A(C  14,C  16,H  20)          109.4185         0.328279   
    131. A(O  17,C  16,C  18)          114.2210         0.386974   
    132. A(C  14,C  16,C  18)          101.8023         0.369566   
    133. A(C  14,C  16,O  17)          113.9141         0.387332   
    134. A(C  16,O  17,H  25)          106.2932         0.360979   
    135. A(O  13,C  18,C  16)          105.2608         0.386666   
    136. A(H  27,C  18,H  28)          108.4609         0.291597   
    137. A(C  16,C  18,H  28)          112.9600         0.327825   
    138. A(O  13,C  18,H  28)          109.6352         0.342685   
    139. A(C  16,C  18,H  27)          109.3497         0.326721   
    140. A(O  13,C  18,H  27)          111.1823         0.341513   
    141. A(H  33,C  31,H  34)          108.4766         0.292776   
    142. A(H  32,C  31,H  34)          108.2958         0.292419   
    143. A(S   7,C  31,H  34)          111.5755         0.339892   
    144. A(H  32,C  31,H  33)          109.4771         0.292597   
    145. A(S   7,C  31,H  33)          108.1507         0.340111   
    146. A(S   7,C  31,H  32)          110.8220         0.339672   
    147. A(C  36,N  35,C  39)          106.5137         0.442460   
    148. A(Fe  1,N  35,C  39)          132.4898         0.425432   
    149. A(Fe  1,N  35,C  36)          119.8968         0.443763   
    150. A(N  37,C  36,H  43)          124.6661         0.361029   
    151. A(N  35,C  36,H  43)          124.7696         0.367890   
    152. A(N  35,C  36,N  37)          110.5634         0.452551   
    153. A(C  38,N  37,H  41)          126.2268         0.360104   
    154. A(C  36,N  37,H  41)          125.6497         0.367126   
    155. A(C  36,N  37,C  38)          108.1234         0.434655   
    156. A(C  39,C  38,H  42)          132.1615         0.366519   
    157. A(N  37,C  38,H  42)          122.3276         0.354534   
    158. A(N  37,C  38,C  39)          105.5109         0.441135   
    159. A(C  38,C  39,H  40)          128.8111         0.366296   
    160. A(N  35,C  39,H  40)          121.8984         0.353638   
    161. A(N  35,C  39,C  38)          109.2881         0.440229   
    162. A(C  45,N  44,C  47)          106.6147         0.441411   
    163. A(Fe  1,N  44,C  47)          131.0587         0.436678   
    164. A(Fe  1,N  44,C  45)          122.3170         0.455453   
    165. A(N  46,C  45,H  49)          125.3476         0.360990   
    166. A(N  44,C  45,H  49)          124.2542         0.366985   
    167. A(N  44,C  45,N  46)          110.3836         0.452431   
    168. A(C  48,N  46,H  52)          126.1766         0.359882   
    169. A(C  45,N  46,H  52)          125.5459         0.367477   
    170. A(C  45,N  46,C  48)          108.2774         0.434896   
    171. A(C  48,C  47,H  50)          128.9813         0.366663   
    172. A(N  44,C  47,H  50)          121.8409         0.353419   
    173. A(N  44,C  47,C  48)          109.1772         0.440103   
    174. A(C  47,C  48,H  51)          132.1271         0.366788   
    175. A(N  46,C  48,H  51)          122.3259         0.354370   
    176. A(N  46,C  48,C  47)          105.5469         0.441208   
    177. D(S   8,Fe  1,Fe  0,S   7)     89.0994         0.001533   
    178. D(S   6,Fe  1,Fe  0,C   2)     82.0058         0.001533   
    179. D(N  35,Fe  1,Fe  0,S   6)    -83.3226         0.001533   
    180. D(S   6,Fe  1,Fe  0,O  12)   -169.6564         0.001533   
    181. D(S   6,Fe  1,Fe  0,S   8)    172.8893         0.001533   
    182. D(S   8,Fe  1,Fe  0,S   6)   -172.8893         0.001533   
    183. D(N  44,Fe  1,Fe  0,C   2)    176.1307         0.001533   
    184. D(N  44,Fe  1,Fe  0,S   6)     94.1248         0.001533   
    185. D(N  35,Fe  1,Fe  0,S   8)     89.5667         0.001533   
    186. D(S   8,Fe  1,Fe  0,O  12)     17.4543         0.001533   
    187. D(N  35,Fe  1,Fe  0,O  12)    107.0210         0.001533   
    188. D(N  35,Fe  1,Fe  0,N   9)   -103.5696         0.001533   
    189. D(N  44,Fe  1,Fe  0,O  12)    -75.5316         0.001533   
    190. D(N  35,Fe  1,Fe  0,C   2)     -1.3168         0.001533   
    191. D(N  35,Fe  1,Fe  0,S   7)    178.6661         0.001533   
    192. D(S   6,Fe  1,Fe  0,S   7)    -98.0113         0.001533   
    193. D(S   6,Fe  1,Fe  0,N   9)    -20.2470         0.001533   
    194. D(N  44,Fe  1,Fe  0,S   8)    -92.9859         0.001533   
    195. D(N  44,Fe  1,Fe  0,S   7)     -3.8864         0.001533   
    196. D(S   8,Fe  1,Fe  0,N   9)    166.8637         0.001533   
    197. D(N  44,Fe  1,Fe  0,N   9)     73.8778         0.001533   
    198. D(S   8,Fe  1,Fe  0,C   2)    -90.8835         0.001533   
    199. D(H   4,C   2,Fe  0,Fe  1)   -176.9972         0.002192   
    200. D(H   4,C   2,Fe  0,N   9)    -37.9153         0.002192   
    201. D(H   4,C   2,Fe  0,S   6)   -127.5331         0.002192   
    202. D(H   4,C   2,Fe  0,S   8)    131.5852         0.002192   
    203. D(C   3,C   2,Fe  0,O  12)    -87.9844         0.002192   
    204. D(C   3,C   2,Fe  0,N   9)   -162.7653         0.002192   
    205. D(C   3,C   2,Fe  0,S   6)    107.6170         0.002192   
    206. D(C   3,C   2,Fe  0,S   8)      6.7353         0.002192   
    207. D(C   3,C   2,Fe  0,Fe  1)     58.1528         0.002192   
    208. D(H   5,C   2,Fe  0,N   9)     76.3113         0.002192   
    209. D(H   5,C   2,Fe  0,S   6)    -13.3064         0.002192   
    210. D(H   5,C   2,Fe  0,S   8)   -114.1881         0.002192   
    211. D(H   5,C   2,Fe  0,Fe  1)    -62.7706         0.002192   
    212. D(H   5,C   2,Fe  0,O  12)    151.0922         0.002192   
    213. D(H   4,C   2,Fe  0,O  12)     36.8656         0.002192   
    214. D(H  26,C   3,C   2,H   5)     58.9587         0.015173   
    215. D(H  26,C   3,C   2,Fe  0)    -58.5668         0.015173   
    216. D(O  13,C   3,C   2,H   4)     60.2774         0.015173   
    217. D(H  26,C   3,C   2,H   4)    177.6558         0.015173   
    218. D(C  14,C   3,C   2,H   4)    -60.1644         0.015173   
    219. D(O  13,C   3,C   2,Fe  0)   -175.9452         0.015173   
    220. D(C  14,C   3,C   2,H   5)   -178.8615         0.015173   
    221. D(C  14,C   3,C   2,Fe  0)     63.6130         0.015173   
    222. D(O  13,C   3,C   2,H   5)    -58.4197         0.015173   
    223. D(Fe  1,S   6,Fe  0,C   2)   -108.6638         0.001692   
    224. D(Fe  0,S   6,Fe  1,N  44)   -131.6711         0.001965   
    225. D(Fe  0,S   6,Fe  1,N  35)    121.9401         0.001965   
    226. D(Fe  0,S   6,Fe  1,S   8)      6.1456         0.001965   
    227. D(Fe  1,S   6,Fe  0,O  12)    156.9971         0.001692   
    228. D(Fe  1,S   6,Fe  0,N   9)    166.6464         0.001692   
    229. D(Fe  1,S   6,Fe  0,S   8)     -5.5067         0.001692   
    230. D(Fe  1,S   6,Fe  0,S   7)     71.3000         0.001692   
    231. D(C  31,S   7,C   2,H   5)   -174.2985         0.001500   
    232. D(C  31,S   7,C   2,C   3)    -53.3858         0.001500   
    233. D(C  31,S   7,Fe  0,O  12)     34.5977         0.001556   
    234. D(C  31,S   7,Fe  0,N   9)    109.3818         0.001556   
    235. D(C  31,S   7,C   2,H   4)     71.4677         0.001500   
    236. D(C  31,S   7,Fe  0,S   8)    -60.1162         0.001556   
    237. D(C  31,S   7,Fe  0,S   6)   -161.0049         0.001556   
    238. D(C  31,S   7,Fe  0,Fe  1)   -111.5425         0.001556   
    239. D(Fe  1,S   8,Fe  0,C   2)    103.2300         0.001658   
    240. D(Fe  0,S   8,Fe  1,N  44)    132.2517         0.001934   
    241. D(Fe  0,S   8,Fe  1,N  35)   -119.2497         0.001934   
    242. D(Fe  0,S   8,Fe  1,S   6)     -6.0973         0.001934   
    243. D(Fe  1,S   8,Fe  0,O  12)   -169.8388         0.001658   
    244. D(Fe  1,S   8,Fe  0,N   9)   -134.8221         0.001658   
    245. D(Fe  1,S   8,Fe  0,S   7)    -76.7535         0.001658   
    246. D(Fe  1,S   8,Fe  0,S   6)      5.5009         0.001658   
    247. D(H  23,N   9,Fe  0,O  12)   -105.8883         0.001911   
    248. D(H  23,N   9,Fe  0,S   7)    161.2803         0.001911   
    249. D(H  23,N   9,Fe  0,S   6)     76.7938         0.001911   
    250. D(H  23,N   9,Fe  0,C   2)    -18.7100         0.001911   
    251. D(H  23,N   9,Fe  0,Fe  1)     92.1236         0.001911   
    252. D(H  22,N   9,Fe  0,O  12)    138.5924         0.001911   
    253. D(H  22,N   9,Fe  0,S   8)    102.2375         0.001911   
    254. D(H  22,N   9,Fe  0,S   7)     45.7611         0.001911   
    255. D(H  22,N   9,Fe  0,S   6)    -38.7254         0.001911   
    256. D(H  22,N   9,Fe  0,C   2)   -134.2292         0.001911   
    257. D(H  22,N   9,Fe  0,Fe  1)    -23.3957         0.001911   
    258. D(C  10,N   9,Fe  0,O  12)     17.4855         0.001911   
    259. D(C  10,N   9,Fe  0,S   6)   -159.8323         0.001911   
    260. D(C  10,N   9,Fe  0,S   7)    -75.3458         0.001911   
    261. D(C  10,N   9,Fe  0,C   2)    104.6639         0.001911   
    262. D(H  23,N   9,Fe  0,S   8)   -142.2433         0.001911   
    263. D(C  10,N   9,Fe  0,Fe  1)   -144.5026         0.001911   
    264. D(C  10,N   9,Fe  0,S   8)    -18.8695         0.001911   
    265. D(H  30,C  10,N   9,H  23)    -26.5930         0.018127   
    266. D(H  30,C  10,N   9,H  22)     94.9595         0.018127   
    267. D(H  30,C  10,N   9,Fe  0)   -146.5849         0.018127   
    268. D(H  29,C  10,N   9,H  23)   -146.0136         0.018127   
    269. D(H  29,C  10,N   9,H  22)    -24.4611         0.018127   
    270. D(H  29,C  10,N   9,Fe  0)     93.9946         0.018127   
    271. D(C  11,C  10,N   9,H  23)     96.6731         0.018127   
    272. D(C  11,C  10,N   9,H  22)   -141.7744         0.018127   
    273. D(C  11,C  10,N   9,Fe  0)    -23.3187         0.018127   
    274. D(O  19,C  11,C  10,H  30)    -38.7907         0.011462   
    275. D(O  19,C  11,C  10,H  29)     76.8598         0.011462   
    276. D(O  19,C  11,C  10,N   9)   -164.3256         0.011462   
    277. D(O  12,C  11,C  10,H  30)    142.2612         0.011462   
    278. D(O  12,C  11,C  10,H  29)   -102.0883         0.011462   
    279. D(O  12,C  11,C  10,N   9)     16.7263         0.011462   
    280. D(Fe  0,O  12,C  11,C  10)     -0.9206         0.064362   
    281. D(C  11,O  12,Fe  0,N   9)     -9.3576         0.002103   
    282. D(C  11,O  12,Fe  0,S   8)    163.3266         0.002103   
    283. D(C  11,O  12,Fe  0,S   7)     85.0371         0.002103   
    284. D(C  11,O  12,Fe  0,S   6)      0.6598         0.002103   
    285. D(C  11,O  12,Fe  0,C   2)    -94.9952         0.002103   
    286. D(Fe  0,O  12,C  11,O  19)   -179.7876         0.064362   
    287. D(C  11,O  12,Fe  0,Fe  1)    150.0044         0.002103   
    288. D(C  18,O  13,C   3,H  26)    111.4062         0.013532   
    289. D(C  18,O  13,C   3,C  14)     -2.2267         0.013532   
    290. D(C  18,O  13,C   3,C   2)   -129.0544         0.013532   
    291. D(H  21,C  14,C   3,O  13)    145.5771         0.011947   
    292. D(H  21,C  14,C   3,C   2)    -89.9412         0.011947   
    293. D(C  16,C  14,C   3,H  26)    -87.7034         0.011947   
    294. D(C  16,C  14,C   3,O  13)     24.6530         0.011947   
    295. D(C  16,C  14,C   3,C   2)    149.1347         0.011947   
    296. D(O  15,C  14,C   3,H  26)    157.0197         0.011947   
    297. D(O  15,C  14,C   3,O  13)    -90.6239         0.011947   
    298. D(H  21,C  14,C   3,H  26)     33.2207         0.011947   
    299. D(O  15,C  14,C   3,C   2)     33.8578         0.011947   
    300. D(H  24,O  15,C  14,H  21)     55.1539         0.021311   
    301. D(H  24,O  15,C  14,C  16)    178.3988         0.021311   
    302. D(H  24,O  15,C  14,C   3)    -68.3826         0.021311   
    303. D(O  17,C  16,C  14,C   3)   -159.9999         0.012305   
    304. D(H  20,C  16,C  14,O  15)   -159.8332         0.012305   
    305. D(H  20,C  16,C  14,C   3)     79.6690         0.012305   
    306. D(C  18,C  16,C  14,H  21)   -154.8807         0.012305   
    307. D(C  18,C  16,C  14,O  15)     83.9426         0.012305   
    308. D(C  18,C  16,C  14,C   3)    -36.5552         0.012305   
    309. D(O  17,C  16,C  14,H  21)     81.6746         0.012305   
    310. D(H  20,C  16,C  14,H  21)    -38.6564         0.012305   
    311. D(O  17,C  16,C  14,O  15)    -39.5021         0.012305   
    312. D(H  25,O  17,C  16,H  20)    154.1716         0.022534   
    313. D(H  25,O  17,C  16,C  18)    -83.6458         0.022534   
    314. D(H  25,O  17,C  16,C  14)     32.7662         0.022534   
    315. D(H  28,C  18,C  16,H  20)     39.6999         0.012180   
    316. D(H  28,C  18,C  16,O  17)    -81.1714         0.012180   
    317. D(H  28,C  18,C  16,C  14)    155.5922         0.012180   
    318. D(H  27,C  18,C  16,H  20)    160.5814         0.012180   
    319. D(H  27,C  18,C  16,O  17)     39.7102         0.012180   
    320. D(H  27,C  18,C  16,C  14)    -83.5262         0.012180   
    321. D(O  13,C  18,C  16,H  20)    -79.8953         0.012180   
    322. D(O  13,C  18,C  16,O  17)    159.2335         0.012180   
    323. D(O  13,C  18,C  16,C  14)     35.9971         0.012180   
    324. D(H  28,C  18,O  13,C   3)   -143.0856         0.022320   
    325. D(H  27,C  18,O  13,C   3)     96.9919         0.022320   
    326. D(C  16,C  18,O  13,C   3)    -21.3061         0.022320   
    327. D(H  34,C  31,S   7,Fe  0)    -66.1713         0.003579   
    328. D(H  33,C  31,S   7,Fe  0)     53.0561         0.003579   
    329. D(H  32,C  31,S   7,Fe  0)    173.0617         0.003579   
    330. D(C  39,N  35,Fe  1,N  44)     46.7621         0.002010   
    331. D(C  39,N  35,Fe  1,S   8)    -75.2734         0.002010   
    332. D(C  39,N  35,Fe  1,S   6)    168.6851         0.002010   
    333. D(C  39,N  35,Fe  1,Fe  0)   -134.9289         0.002010   
    334. D(C  36,N  35,Fe  1,N  44)   -146.9985         0.002010   
    335. D(C  36,N  35,Fe  1,S   8)     90.9660         0.002010   
    336. D(C  36,N  35,Fe  1,S   6)    -25.0755         0.002010   
    337. D(C  36,N  35,Fe  1,Fe  0)     31.3106         0.002010   
    338. D(H  43,C  36,N  35,C  39)    179.4540         0.048998   
    339. D(H  43,C  36,N  35,Fe  1)      9.9954         0.048998   
    340. D(N  37,C  36,N  35,C  39)     -0.2238         0.048998   
    341. D(N  37,C  36,N  35,Fe  1)   -169.6824         0.048998   
    342. D(H  41,N  37,C  36,H  43)      0.4382         0.038416   
    343. D(H  41,N  37,C  36,N  35)   -179.8836         0.038416   
    344. D(C  38,N  37,C  36,H  43)   -179.4828         0.038416   
    345. D(C  38,N  37,C  36,N  35)      0.1954         0.038416   
    346. D(H  42,C  38,N  37,H  41)     -0.0147         0.030058   
    347. D(H  42,C  38,N  37,C  36)    179.9057         0.030058   
    348. D(C  39,C  38,N  37,H  41)    179.9981         0.030058   
    349. D(C  39,C  38,N  37,C  36)     -0.0815         0.030058   
    350. D(H  40,C  39,C  38,H  42)     -0.5934         0.036119   
    351. D(H  40,C  39,C  38,N  37)    179.3920         0.036119   
    352. D(N  35,C  39,C  38,H  42)    179.9613         0.036119   
    353. D(N  35,C  39,C  38,N  37)     -0.0533         0.036119   
    354. D(H  40,C  39,N  35,C  36)   -179.3207         0.029333   
    355. D(H  40,C  39,N  35,Fe  1)    -11.7411         0.029333   
    356. D(C  38,C  39,N  35,C  36)      0.1702         0.029333   
    357. D(C  38,C  39,N  35,Fe  1)    167.7498         0.029333   
    358. D(C  47,N  44,Fe  1,N  35)     13.4467         0.002187   
    359. D(C  47,N  44,Fe  1,S   8)    128.5200         0.002187   
    360. D(C  47,N  44,Fe  1,S   6)    -97.2039         0.002187   
    361. D(C  47,N  44,Fe  1,Fe  0)   -164.4264         0.002187   
    362. D(C  45,N  44,Fe  1,N  35)   -165.2708         0.002187   
    363. D(C  45,N  44,Fe  1,S   8)    -50.1975         0.002187   
    364. D(C  45,N  44,Fe  1,S   6)     84.0787         0.002187   
    365. D(C  45,N  44,Fe  1,Fe  0)     16.8562         0.002187   
    366. D(H  49,C  45,N  44,C  47)    178.5548         0.048177   
    367. D(H  49,C  45,N  44,Fe  1)     -2.4544         0.048177   
    368. D(N  46,C  45,N  44,C  47)     -0.1234         0.048177   
    369. D(N  46,C  45,N  44,Fe  1)    178.8674         0.048177   
    370. D(H  52,N  46,C  45,H  49)      1.3451         0.038936   
    371. D(H  52,N  46,C  45,N  44)   -179.9944         0.038936   
    372. D(C  48,N  46,C  45,H  49)   -178.5216         0.038936   
    373. D(C  48,N  46,C  45,N  44)      0.1390         0.038936   
    374. D(H  50,C  47,N  44,C  45)   -179.6598         0.028985   
    375. D(H  50,C  47,N  44,Fe  1)      1.4713         0.028985   
    376. D(C  48,C  47,N  44,C  45)      0.0621         0.028985   
    377. D(C  48,C  47,N  44,Fe  1)   -178.8068         0.028985   
    378. D(H  51,C  48,C  47,H  50)     -0.2354         0.036432   
    379. D(H  51,C  48,C  47,N  44)   -179.9314         0.036432   
    380. D(N  46,C  48,C  47,H  50)    179.7163         0.036432   
    381. D(N  46,C  48,C  47,N  44)      0.0203         0.036432   
    382. D(H  51,C  48,N  46,H  52)     -0.0024         0.029862   
    383. D(H  51,C  48,N  46,C  45)    179.8632         0.029862   
    384. D(C  47,C  48,N  46,H  52)   -179.9599         0.029862   
    385. D(C  47,C  48,N  46,C  45)     -0.0943         0.029862   
    -----------------------------------------------------------------

Number of atoms                         .... 53
Number of degrees of freedom            .... 385

         *************************************************************
         *                GEOMETRY OPTIMIZATION CYCLE   1            *
         *************************************************************
---------------------------------
CARTESIAN COORDINATES (ANGSTROEM)
---------------------------------
  Fe    -0.705175   -1.075343    0.454470
  Fe    -2.089131   -3.392468    1.652779
  C      1.428366   -1.450149    0.563020
  C      1.981166   -2.667787   -0.086326
  H      1.931388   -0.568961    0.168958
  H      1.608522   -1.499684    1.632389
  S     -1.160304   -1.610741    2.824356
  S     -3.311454   -0.619241    0.321895
  S     -1.547841   -3.174337   -0.608887
  N     -0.159455    1.006551    1.024444
  C     -0.236910    1.914952   -0.105932
  C     -0.103131    1.185512   -1.428667
  O     -0.275162   -0.063026   -1.401666
  O      3.423922   -2.826405    0.157908
  C      1.835336   -2.744351   -1.597385
  O      1.919996   -1.495458   -2.248026
  C      3.054271   -3.538962   -2.022202
  O      3.394590   -3.379283   -3.374393
  C      4.106485   -3.035616   -1.051872
  O      0.140936    1.844155   -2.434827
  H      2.872914   -4.594526   -1.854237
  H      0.901387   -3.228547   -1.846168
  H     -0.801819    1.278846    1.745574
  H      0.761354    0.963745    1.419980
  H      1.137183   -0.977199   -2.012101
  H      3.154951   -2.481174   -3.607717
  H      1.509685   -3.550267    0.335503
  H      4.531621   -2.105440   -1.430410
  H      4.913346   -3.744320   -0.897407
  H     -1.214224    2.383816   -0.113044
  H      0.504170    2.704092   -0.064716
  C     -3.725678   -0.693090   -1.438263
  H     -4.800191   -0.637745   -1.584570
  H     -3.355094   -1.631793   -1.833202
  H     -3.264493    0.118426   -1.990986
  N     -1.076783   -5.145240    2.438640
  C      0.111758   -5.028315    2.966675
  N      0.649340   -6.231766    3.183381
  C     -0.244245   -7.177819    2.766430
  C     -1.312994   -6.487678    2.304854
  H     -2.221406   -6.862257    1.883267
  H      1.549783   -6.404393    3.580626
  H     -0.041743   -8.224473    2.835009
  H      0.591454   -4.098342    3.189932
  N     -4.072189   -4.004464    2.133372
  C     -5.126481   -3.423983    1.621484
  N     -6.240353   -4.009798    2.064094
  C     -4.532956   -5.008836    2.945103
  C     -5.884731   -5.022699    2.910965
  H     -5.089750   -2.582330    0.958899
  H     -3.867783   -5.640480    3.493490
  H     -6.607444   -5.641030    3.397132
  H     -7.172426   -3.747290    1.817035

----------------------------
CARTESIAN COORDINATES (A.U.)
----------------------------
  NO LB      ZA    FRAG     MASS         X           Y           Z
   0 Fe   26.0000    0    55.850   -1.332588   -2.032104    0.858823
   1 Fe   26.0000    0    55.850   -3.947885   -6.410835    3.123299
   2 C     6.0000    0    12.011    2.699221   -2.740384    1.063953
   3 C     6.0000    0    12.011    3.743860   -5.041388   -0.163133
   4 H     1.0000    0     1.008    3.649794   -1.075180    0.319285
   5 H     1.0000    0     1.008    3.039666   -2.833993    3.084768
   6 S    16.0000    0    32.060   -2.192657   -3.043860    5.337259
   7 S    16.0000    0    32.060   -6.257742   -1.170196    0.608293
   8 S    16.0000    0    32.060   -2.924996   -5.998627   -1.150629
   9 N     7.0000    0    14.007   -0.301327    1.902105    1.935919
  10 C     6.0000    0    12.011   -0.447695    3.618735   -0.200183
  11 C     6.0000    0    12.011   -0.194889    2.240293   -2.699789
  12 O     8.0000    0    15.999   -0.519980   -0.119103   -2.648766
  13 O     8.0000    0    15.999    6.470275   -5.341132    0.298404
  14 C     6.0000    0    12.011    3.468283   -5.186072   -3.018621
  15 O     8.0000    0    15.999    3.628267   -2.826006   -4.248154
  16 C     6.0000    0    12.011    5.771735   -6.687670   -3.821408
  17 O     8.0000    0    15.999    6.414845   -6.385919   -6.376679
  18 C     6.0000    0    12.011    7.760133   -5.736483   -1.987749
  19 O     8.0000    0    15.999    0.266331    3.484949   -4.601157
  20 H     1.0000    0     1.008    5.429021   -8.682395   -3.504000
  21 H     1.0000    0     1.008    1.703375   -6.101070   -3.488752
  22 H     1.0000    0     1.008   -1.515219    2.416670    3.298656
  23 H     1.0000    0     1.008    1.438751    1.821213    2.683373
  24 H     1.0000    0     1.008    2.148964   -1.846639   -3.802319
  25 H     1.0000    0     1.008    5.961994   -4.688740   -6.817596
  26 H     1.0000    0     1.008    2.852892   -6.709032    0.634009
  27 H     1.0000    0     1.008    8.563523   -3.978705   -2.703083
  28 H     1.0000    0     1.008    9.284878   -7.075739   -1.695853
  29 H     1.0000    0     1.008   -2.294550    4.504760   -0.213623
  30 H     1.0000    0     1.008    0.952743    5.109994   -0.122295
  31 C     6.0000    0    12.011   -7.040511   -1.309750   -2.717923
  32 H     1.0000    0     1.008   -9.071047   -1.205164   -2.994404
  33 H     1.0000    0     1.008   -6.340208   -3.083641   -3.464250
  34 H     1.0000    0     1.008   -6.168998    0.223793   -3.762418
  35 N     7.0000    0    14.007   -2.034826   -9.723095    4.608362
  36 C     6.0000    0    12.011    0.211192   -9.502139    5.606203
  37 N     7.0000    0    14.007    1.227075  -11.776332    6.015719
  38 C     6.0000    0    12.011   -0.461555  -13.564112    5.227795
  39 C     6.0000    0    12.011   -2.481199  -12.259934    4.355544
  40 H     1.0000    0     1.008   -4.197850  -12.967786    3.558858
  41 H     1.0000    0     1.008    2.928665  -12.102549    6.766402
  42 H     1.0000    0     1.008   -0.078882  -15.542001    5.357391
  43 H     1.0000    0     1.008    1.117687   -7.744745    6.028099
  44 N     7.0000    0    14.007   -7.695322   -7.567340    4.031488
  45 C     6.0000    0    12.011   -9.687644   -6.470390    3.064161
  46 N     7.0000    0    14.007  -11.792559   -7.577420    3.900572
  47 C     6.0000    0    12.011   -8.566045   -9.465329    5.565437
  48 C     6.0000    0    12.011  -11.120529   -9.491525    5.500927
  49 H     1.0000    0     1.008   -9.618233   -4.879896    1.812057
  50 H     1.0000    0     1.008   -7.309050  -10.658963    6.601739
  51 H     1.0000    0     1.008  -12.486259  -10.660001    6.419648
  52 H     1.0000    0     1.008  -13.553920   -7.081351    3.433699

--------------------------------
INTERNAL COORDINATES (ANGSTROEM)
--------------------------------
 Fe     0   0   0     0.000000000000     0.00000000     0.00000000
 Fe     1   0   0     2.953022786068     0.00000000     0.00000000
 C      1   2   0     2.168930717746   107.76458583     0.00000000
 C      3   1   2     1.486566846684   119.04387671    58.15284036
 H      3   1   2     1.088488608522   107.25192041   183.00277868
 H      3   1   2     1.085569333659   102.73447977   297.22944108
 S      2   1   3     2.325910778921    54.27953576    82.00582889
 S      1   2   3     2.649206908214    72.20186579   179.98290202
 S      2   1   3     2.335744944219    54.91393123   269.11653746
 N      1   2   3     2.226423789926   138.13450532   257.74719713
 C     10   1   2     1.452219948383   111.87471826   215.49739747
 C     11  10   1     1.516445485999   111.92253346   336.68129905
 O     12  11  10     1.260623744020   116.46730900    16.72629225
 O      4   3   1     1.471854947623   112.35228362   184.05479247
 C      4   3   1     1.520009072706   116.09231876    63.61301120
 O     15   4   3     1.410756792820   114.08778412    33.85777569
 C     15   4   3     1.515809189117   103.17126784   149.13469792
 O     17  15   4     1.403472276957   113.91413268   200.00007601
 C     14   4   3     1.404716891932   110.45324033   230.94561163
 O     12  11  10     1.227085267272   118.33170350   195.67440456
 H     17  15   4     1.084119911994   109.41848621    79.66900139
 H     15   4   3     1.081018044536   109.52579678   270.05879903
 H     10   1   2     1.003396331705   106.30963626   336.60432273
 H     10   1   2     1.003080704028   106.62164069    92.12355740
 H     16  15   4     0.968013553479   108.24149930   291.61744250
 H     18  17  15     0.958365737495   106.29319470    32.76618607
 H      4   3   1     1.085819264055   109.54450955   301.43319889
 H     19  14   4     1.090531634721   111.18228580    96.99193766
 H     19  14   4     1.084962446778   109.63524220   216.91440291
 H     11  10   1     1.083986404003   108.89027845    93.99455843
 H     11  10   1     1.083346925336   112.92664636   213.41512505
 C      8   1   2     1.809748595666   105.47526626   248.45753849
 H     32   8   1     1.085839659982   110.82204650   173.06167828
 H     32   8   1     1.083730922915   108.15069934    53.05608817
 H     32   8   1     1.084782034510   111.57553168   293.82868050
 N      2   1   3     2.171321189561   124.17835153   358.68319384
 C     36   2   1     1.305803418603   119.89684926    31.31057371
 N     37  36   2     1.335758454963   110.56344822   190.31763915
 C     38  37  36     1.366512911489   108.12343315     0.19538184
 C     39  38  37     1.353355765662   105.51085530   359.91850201
 H     40  39  38     1.069232873795   128.81112044   179.39199655
 H     38  37  36     0.999199724795   125.64972055   180.11639156
 H     39  38  37     1.068266779873   122.32763203   179.90571419
 H     37  36   2     1.069954294500   124.76960328     9.99543206
 N      2   1   3     2.130265249646   138.87198614   176.13065234
 C     45   2   1     1.307867633832   122.31698975    16.85620278
 N     46  45   2     1.334089657829   110.38363564   178.86741295
 C     45   2   1     1.371122545723   131.05873499   195.57364177
 C     48  45   2     1.352276836178   109.17715657   181.19316412
 H     46  45   2     1.071796604113   124.25423963   357.54560130
 H     48  45   2     1.068717998234   121.84085515     1.47133339
 H     49  48  45     1.068178043532   132.12712776   180.06859065
 H     47  46  45     0.999353358408   125.54590887   180.00561956

---------------------------
INTERNAL COORDINATES (A.U.)
---------------------------
 Fe     0   0   0     0.000000000000     0.00000000     0.00000000
 Fe     1   0   0     5.580404332897     0.00000000     0.00000000
 C      1   2   0     4.098685059989   107.76458583     0.00000000
 C      3   1   2     2.809204220000   119.04387671    58.15284036
 H      3   1   2     2.056945370000   107.25192041   183.00277868
 H      3   1   2     2.051428740000   102.73447977   297.22944108
 S      2   1   3     4.395334384097    54.27953576    82.00582889
 S      1   2   3     5.006275528617    72.20186579   179.98290202
 S      2   1   3     4.413918263266    54.91393123   269.11653746
 N      1   2   3     4.207331221008   138.13450532   257.74719713
 C     10   1   2     2.744297988660   111.87471826   215.49739747
 C     11  10   1     2.865666665559   111.92253346   336.68129905
 O     12  11  10     2.382233634116   116.46730900    16.72629225
 O      4   3   1     2.781402759864   112.35228362   184.05479247
 C      4   3   1     2.872400868490   116.09231876    63.61301120
 O     15   4   3     2.665943980000   114.08778412    33.85777569
 C     15   4   3     2.864464238713   103.17126784   149.13469792
 O     17  15   4     2.652178240000   113.91413268   200.00007601
 C     14   4   3     2.654530221444   110.45324033   230.94561163
 O     12  11  10     2.318855098113   118.33170350   195.67440456
 H     17  15   4     2.048689730000   109.41848621    79.66900139
 H     15   4   3     2.042828050000   109.52579678   270.05879903
 H     10   1   2     1.896144270703   106.30963626   336.60432273
 H     10   1   2     1.895547820833   106.62164069    92.12355740
 H     16  15   4     1.829280510000   108.24149930   291.61744250
 H     18  17  15     1.811048780000   106.29319470    32.76618607
 H      4   3   1     2.051901040000   109.54450955   301.43319889
 H     19  14   4     2.060806130000   111.18228580    96.99193766
 H     19  14   4     2.050281890000   109.63524220   216.91440291
 H     11  10   1     2.048437436461   108.89027845    93.99455843
 H     11  10   1     2.047228996910   112.92664636   213.41512505
 C      8   1   2     3.419929217057   105.47526626   248.45753849
 H     32   8   1     2.051939582716   110.82204650   173.06167828
 H     32   8   1     2.047954647171   108.15069934    53.05608817
 H     32   8   1     2.049940960223   111.57553168   293.82868050
 N      2   1   3     4.103202397050   124.17835153   358.68319384
 C     36   2   1     2.467610845897   119.89684926    31.31057371
 N     37  36   2     2.524217660950   110.56344822   190.31763915
 C     38  37  36     2.582335161182   108.12343315     0.19538184
 C     39  38  37     2.557471758865   105.51085530   359.91850201
 H     40  39  38     2.020557304859   128.81112044   179.39199655
 H     38  37  36     1.888213832952   125.64972055   180.11639156
 H     39  38  37     2.018731651926   122.32763203   179.90571419
 H     37  36   2     2.021920592417   124.76960328     9.99543206
 N      2   1   3     4.025617914439   138.87198614   176.13065234
 C     45   2   1     2.471511647362   122.31698975    16.85620278
 N     46  45   2     2.521064091393   110.38363564   178.86741295
 C     45   2   1     2.591046107461   131.05873499   195.57364177
 C     48  45   2     2.555432877623   109.17715657   181.19316412
 H     46  45   2     2.025402053041   124.25423963   357.54560130
 H     48  45   2     2.019584331056   121.84085515     1.47133339
 H     49  48  45     2.018563964543   132.12712776   180.06859065
 H     47  46  45     1.888504158405   125.54590887   180.00561956

---------------------
BASIS SET INFORMATION
---------------------
There are 7 groups of distinct atoms

 Group   1 Type Fe  : 17s11p5d1f contracted to 17s7p3d1f pattern {11111111111111111/3311111/311/1}
 Group   2 Type C   : 12s8p2d1f contracted to 8s5p2d1f pattern {51111111/41111/11/1}
 Group   3 Type C   : 10s5p1d contracted to 6s2p1d pattern {511111/41/1}
 Group   4 Type H   : 6s1p contracted to 4s1p pattern {3111/1}
 Group   5 Type S   : 14s9p3d1f contracted to 5s5p2d1f pattern {73211/51111/21/1}
 Group   6 Type N   : 10s5p1d contracted to 6s2p1d pattern {511111/41/1}
 Group   7 Type O   : 10s5p1d contracted to 6s2p1d pattern {511111/41/1}

Atom   0Fe   basis set group =>   1
Atom   1Fe   basis set group =>   1
Atom   2C    basis set group =>   2
Atom   3C    basis set group =>   3
Atom   4H    basis set group =>   4
Atom   5H    basis set group =>   4
Atom   6S    basis set group =>   5
Atom   7S    basis set group =>   5
Atom   8S    basis set group =>   5
Atom   9N    basis set group =>   6
Atom  10C    basis set group =>   3
Atom  11C    basis set group =>   3
Atom  12O    basis set group =>   7
Atom  13O    basis set group =>   7
Atom  14C    basis set group =>   3
Atom  15O    basis set group =>   7
Atom  16C    basis set group =>   3
Atom  17O    basis set group =>   7
Atom  18C    basis set group =>   3
Atom  19O    basis set group =>   7
Atom  20H    basis set group =>   4
Atom  21H    basis set group =>   4
Atom  22H    basis set group =>   4
Atom  23H    basis set group =>   4
Atom  24H    basis set group =>   4
Atom  25H    basis set group =>   4
Atom  26H    basis set group =>   4
Atom  27H    basis set group =>   4
Atom  28H    basis set group =>   4
Atom  29H    basis set group =>   4
Atom  30H    basis set group =>   4
Atom  31C    basis set group =>   3
Atom  32H    basis set group =>   4
Atom  33H    basis set group =>   4
Atom  34H    basis set group =>   4
Atom  35N    basis set group =>   6
Atom  36C    basis set group =>   3
Atom  37N    basis set group =>   6
Atom  38C    basis set group =>   3
Atom  39C    basis set group =>   3
Atom  40H    basis set group =>   4
Atom  41H    basis set group =>   4
Atom  42H    basis set group =>   4
Atom  43H    basis set group =>   4
Atom  44N    basis set group =>   6
Atom  45C    basis set group =>   3
Atom  46N    basis set group =>   6
Atom  47C    basis set group =>   3
Atom  48C    basis set group =>   3
Atom  49H    basis set group =>   4
Atom  50H    basis set group =>   4
Atom  51H    basis set group =>   4
Atom  52H    basis set group =>   4


           ************************************************************
           *        Program running with 32 parallel MPI-processes    *
           *              working on a common directory               *
           ************************************************************
------------------------------------------------------------------------------
                           ORCA GTO INTEGRAL CALCULATION
------------------------------------------------------------------------------

                         BASIS SET STATISTICS AND STARTUP INFO

 # of primitive gaussian shells          ...  708
 # of primitive gaussian functions       ... 1312
 # of contracted shells                  ...  438
 # of contracted basis functions         ...  830
 Highest angular momentum                ...    3
 Maximum contraction depth               ...    7
 Integral package used                   ... LIBINT
 Integral threshhold            Thresh   ...  1.000e-12
 Primitive cut-off              TCut     ...  1.000e-14


------------------------------ INTEGRAL EVALUATION ----------------------------


 * One electron integrals 
 Pre-screening matrix                    ... done
 Shell pair data                         ... done (   0.020 sec)



           ************************************************************
           *        Program running with 32 parallel MPI-processes    *
           *              working on a common directory               *
           ************************************************************
-------------------------------------------------------------------------------
                                 ORCA SCF
-------------------------------------------------------------------------------

------------
SCF SETTINGS
------------
Hamiltonian:
 Density Functional     Method          .... DFT(GTOs)
 Exchange Functional    Exchange        .... B88
   X-Alpha parameter    XAlpha          ....  0.666667
   Becke's b parameter  XBeta           ....  0.004200
 Correlation Functional Correlation     .... LYP
 Gradients option       PostSCFGGA      .... off
 Hybrid DFT is turned on
   Fraction HF Exchange ScalHFX         ....  0.500000
   Scaling of DF-GGA-X  ScalDFX         ....  0.500000
   Scaling of DF-GGA-C  ScalDFC         ....  1.000000
   Scaling of DF-LDA-C  ScalLDAC        ....  1.000000
   Perturbative correction              ....  0.000000
   Density functional embedding theory  .... OFF


General Settings:
 Integral files         IntName         .... 5-dAdo-2minusBHandHLYP_sbdft_aab
 Hartree-Fock type      HFTyp           .... UHF
 Total Charge           Charge          ....   -2
 Multiplicity           Mult            ....   10
 Number of Electrons    NEL             ....  285
 Basis Dimension        Dim             ....  830
 Nuclear Repulsion      ENuc            ....   4929.5195470128 Eh

Convergence Acceleration:
 DIIS                   CNVDIIS         .... on
   Start iteration      DIISMaxIt       ....     0
   Startup error        DIISStart       ....  0.200000
   # of expansion vecs  DIISMaxEq       ....    15
   Bias factor          DIISBfac        ....   1.050
   Max. coefficient     DIISMaxC        ....  10.000
 Newton-Raphson         CNVNR           .... off
 SOSCF                  CNVSOSCF        .... off
 Level Shifting         CNVShift        .... on
   Level shift para.    LevelShift      ....    0.2500
   Turn off err/grad.   ShiftErr        ....    0.0000
 Zerner damping         CNVZerner       .... off
 Static damping         CNVDamp         .... on
   Fraction old density DampFac         ....    0.9200
   Max. Damping (<1)    DampMax         ....    0.9800
   Min. Damping (>=0)   DampMin         ....    0.0000
   Turn off err/grad.   DampErr         ....    0.0030
 Fernandez-Rico         CNVRico         .... off

SCF Procedure:
 Maximum # iterations   MaxIter         ....  3000
 SCF integral mode      SCFMode         .... Direct
   Integral package                     .... LIBINT
 Reset frequency        DirectResetFreq ....     1
 Integral Threshold     Thresh          ....  1.000e-12 Eh
 Primitive CutOff       TCut            ....  1.000e-14 Eh

Convergence Tolerance:
 Convergence Check Mode ConvCheckMode   .... Total+1el-Energy
 Convergence forced     ConvForced      .... 1
 Energy Change          TolE            ....  1.000e-09 Eh
 1-El. energy change                    ....  1.000e-06 Eh
 DIIS Error             TolErr          ....  1.000e-08


The Flip-Spin feature is operative for generating broken symmetry solutions
 C 2
We will now do a high-spin calculation with                 Ms=  4.5
and then try to converge to the broken symmetry state with Ms=  4.5


Diagonalization of the overlap matrix:
Smallest eigenvalue                        ... 1.298e-04
Time for diagonalization                   ...    0.523 sec
Threshold for overlap eigenvalues          ... 1.000e-08
Number of eigenvalues below threshold      ... 0
Time for construction of square roots      ...    1.181 sec
Total time needed                          ...    1.709 sec

-------------------
DFT GRID GENERATION
-------------------

General Integration Accuracy     IntAcc      ...  5.670
Radial Grid Type                 RadialGrid  ... Gauss-Chebyshev
Angular Grid (max. acc.)         AngularGrid ... Lebedev-770
Angular grid pruning method      GridPruning ... 3 (G Style)
Weight generation scheme         WeightScheme... Becke
Basis function cutoff            BFCut       ...    1.0000e-12
Integration weight cutoff        WCut        ...    1.0000e-14
Grids for H and He will be reduced by one unit

SpecialGrid => Setting IntAcc for atom type =  26 to   7.0000
SpecialGrid => Setting IntAcc for atom type =  26 to   7.0000
# of grid points (after initial pruning)     ... 1201996 (   0.0 sec)
# of grid points (after weights+screening)   ... 1032393 (   1.5 sec)
nearest neighbour list constructed           ...    0.0 sec
Grid point re-assignment to atoms done       ...    0.6 sec
Grid point division into batches done        ...   26.1 sec
Reduced shell lists constructed in   27.5 sec

Total number of grid points                  ...  1032393
Total number of batches                      ...    16156
Average number of points per batch           ...       63
Average number of grid points per atom       ...    19479
Average number of shells per batch           ...   184.25 (42.07%)
Average number of basis functions per batch  ...   411.89 (49.62%)
Average number of large shells per batch     ...   127.35 (69.12%)
Average number of large basis fcns per batch ...   292.53 (71.02%)
Maximum spatial batch extension              ...   3.85,  2.39,  3.90 au
Average spatial batch extension              ...   0.02,  0.02,  0.02 au

Time for grid setup =   32.539 sec

------------------------------
INITIAL GUESS: MODEL POTENTIAL
------------------------------
Loading Hartree-Fock densities                     ... done
Calculating cut-offs                               ... done
Setting up the integral package                    ... done
Initializing the effective Hamiltonian             ... done
Starting the Coulomb interaction                   ... done (   0.3 sec)
Reading the grid                                   ... done
Mapping shells                                     ... done
Starting the XC term evaluation                    ... done (   1.9 sec)
  promolecular density results
     # of electrons  =    282.988271716
     EX              =   -337.099433820
     EC              =    -10.700672746
     EX+EC           =   -347.800106566
Transforming the Hamiltonian                       ... done (   1.0 sec)
Diagonalizing the Hamiltonian                      ... done (   0.5 sec)
Back transforming the eigenvectors                 ... done (   0.1 sec)
Now organizing SCF variables                       ... done
                      ------------------
                      INITIAL GUESS DONE (  36.7 sec)
                      ------------------

--------------------
CPCM SOLVATION MODEL
--------------------
CPCM parameters:
  Epsilon                                         ...      20.0000
  Refrac                                          ...       1.0000
  Rsolv                                           ...       1.3000
  Surface type                                    ...    GEPOL SES
  Epsilon function type                           ...         CPCM
Radii:
 Radius for Fe used is    4.2009 Bohr (=   2.2230 Ang.)
 Radius for C  used is    3.7795 Bohr (=   2.0000 Ang.)
 Radius for H  used is    2.4566 Bohr (=   1.3000 Ang.)
 Radius for S  used is    4.0818 Bohr (=   2.1600 Ang.)
 Radius for N  used is    3.4582 Bohr (=   1.8300 Ang.)
 Radius for O  used is    3.2503 Bohr (=   1.7200 Ang.)
Calculating surface                               ...        done! (  0.3s)
GEPOL surface points                              ...         1888
GEPOL Volume                                      ...    3613.2275
GEPOL Surface-area                                ...    1568.5885
Calculating surface distance matrix               ...        done! (  0.0s)
Performing Cholesky decomposition & store         ...        done! (  1.6s)
Overall time for CPCM initialization              ...                 1.8s
--------------
SCF ITERATIONS
--------------
ITER       Energy         Delta-E        Max-DP      RMS-DP      [F,P]     Damp
  0  -4918.4555399055   0.000000000000 0.15748594  0.00037129  0.9269329 0.9200
  1  -4918.6138728704  -0.158332964891 0.30355405  0.00063329  0.8529087 0.9200
                               ***Turning on DIIS***
  2  -4918.7504633494  -0.136590478984 0.30884093  0.00063850  0.7848170 0.9200
  3  -4918.8609590723  -0.110495722850 0.17645077  0.00038584  0.7221908 0.9200
  4  -4918.9524590694  -0.091499997085 0.04993940  0.00017242  0.6646044 0.9200
  5  -4919.0276382376  -0.075179168204 0.05529064  0.00012386  0.6116085 0.9200
  6  -4919.0904773767  -0.062839139101 0.06977112  0.00012493  0.5627814 0.9200
  7  -4919.1457679978  -0.055290621157 0.07162575  0.00012316  0.5177973 0.9200
  8  -4919.1960901777  -0.050322179924 0.06896650  0.00011789  0.4763809 0.9200
  9  -4919.2423986149  -0.046308437131 0.06493813  0.00011167  0.4382689 0.9200
 10  -4919.2850647208  -0.042666105906 0.06065706  0.00010545  0.4032057 0.9200
 11  -4919.3243381517  -0.039273430885 0.05648600  0.00009946  0.3709494 0.9200
 12  -4919.3604629366  -0.036124784979 0.05253197  0.00009375  0.3412751 0.9200
 13  -4919.3936856332  -0.033222696543 0.04882040  0.00008833  0.3139757 0.9200
 14  -4919.4242451854  -0.030559552167 0.04535114  0.00008320  0.2888608 0.9200
 15  -4919.4523656545  -0.028120469174 0.04211569  0.00007837  0.2657554 0.9200
 16  -4919.4782533784  -0.025887723917 0.03910260  0.00007384  0.2444987 0.9200
 17  -4919.5020967558  -0.023843377358 0.03611178  0.00006939  0.2249426 0.9200
 18  -4919.5241089615  -0.022012205671 0.03343217  0.00006553  0.2069500 0.9200
 19  -4919.5444036350  -0.020294673555 0.03112152  0.00006232  0.1903981 0.9200
 20  -4919.5630943073  -0.018690672297 0.02906329  0.00005950  0.1751720 0.9200
 21  -4919.5803100654  -0.017215758121 0.02714908  0.00005686  0.1611648 0.9200
 22  -4919.5961801739  -0.015870108474 0.02533120  0.00005433  0.1482780 0.9200
 23  -4919.6108232034  -0.014643029513 0.02444872  0.00005192  0.1364216 0.9200
 24  -4919.6243444145  -0.013521211066 0.02387070  0.00004966  0.1255133 0.9200
 25  -4919.6368371651  -0.012492750606 0.02328304  0.00004755  0.1154773 0.9200
 26  -4919.6483851327  -0.011547967636 0.02269817  0.00004561  0.1062441 0.9200
 27  -4919.6590640974  -0.010678964636 0.02212168  0.00004381  0.0977495 0.9200
 28  -4919.6689431657  -0.009879068300 0.02155580  0.00004215  0.0899344 0.9200
 29  -4919.6780856072  -0.009142441520 0.02100132  0.00004062  0.0827446 0.9200
 30  -4919.6865494691  -0.008463861904 0.02045840  0.00003919  0.0761298 0.9200
 31  -4919.6943880662  -0.007838597090 0.01992679  0.00003787  0.0700442 0.9200
 32  -4919.7016504019  -0.007262335682 0.01940597  0.00003663  0.0644453 0.9200
 33  -4919.7083815291  -0.006731127233 0.01889643  0.00003547  0.0592942 0.9200
 34  -4919.7146228313  -0.006241302186 0.01839798  0.00003438  0.0545551 0.9200
 35  -4919.7204123626  -0.005789531346 0.01790934  0.00003336  0.0501949 0.9200
 36  -4919.7257851643  -0.005372801687 0.01742899  0.00003238  0.0461834 0.9200
 37  -4919.7307734958  -0.004988331453 0.01695584  0.00003145  0.0424927 0.9200
 38  -4919.7354070354  -0.004633539636 0.01648932  0.00003055  0.0390970 0.9200
 39  -4919.7397130638  -0.004306028374 0.01602927  0.00002969  0.0359728 0.9200
 40  -4919.7437166474  -0.004003583636 0.01557569  0.00002886  0.0330983 0.9200
 41  -4919.7474408222  -0.003724174792 0.01512863  0.00002805  0.0304536 0.9200
 42  -4919.7509067568  -0.003465934577 0.01468815  0.00002727  0.0280202 0.9200
 43  -4919.7541339111  -0.003227154351 0.01425433  0.00002651  0.0257814 0.9200
 44  -4919.7571401751  -0.003006263905 0.01382729  0.00002577  0.0237214 0.9200
 45  -4919.7599419980  -0.002801822967 0.01340718  0.00002504  0.0218261 0.9200
 46  -4919.7625545056  -0.002612507580 0.01299418  0.00002434  0.0200823 0.9200
 47  -4919.7649916094  -0.002437103830 0.01258852  0.00002364  0.0184777 0.9200
 48  -4919.7672661061  -0.002274496666 0.01219044  0.00002297  0.0170014 0.9200
 49  -4919.7693897725  -0.002123666368 0.01180016  0.00002230  0.0156430 0.9200
 50  -4919.7713734436  -0.001983671159 0.01141791  0.00002165  0.0143932 0.9200
 51  -4919.7732270996  -0.001853655953 0.01104390  0.00002102  0.0132431 0.9200
 52  -4919.7749599347  -0.001732835157 0.01067834  0.00002040  0.0121849 0.9200
 53  -4919.7765804213  -0.001620486533 0.01032136  0.00001980  0.0112113 0.9200
 54  -4919.7780963739  -0.001515952664 0.00997311  0.00001921  0.0103153 0.9200
 55  -4919.7795150087  -0.001418634798 0.00963366  0.00001863  0.0094910 0.9200
 56  -4919.7808429836  -0.001327974918 0.00930303  0.00001807  0.0087324 0.9200
 57  -4919.7820864610  -0.001243477349 0.00898117  0.00001752  0.0080345 0.9200
 58  -4919.7832511407  -0.001164679745 0.00866799  0.00001699  0.0073922 0.9200
 59  -4919.7843423017  -0.001091160918 0.00836330  0.00001647  0.0068013 0.9200
 60  -4919.7853648437  -0.001022541998 0.00806687  0.00001596  0.0062575 0.9200
 61  -4919.7863233152  -0.000958471571 0.00777842  0.00001547  0.0057571 0.9200
 62  -4919.7872219460  -0.000898630800 0.00749763  0.00001499  0.0052967 0.9200
 63  -4919.7880646745  -0.000842728450 0.00722411  0.00001452  0.0048731 0.9200
 64  -4919.7888551711  -0.000790496633 0.00695750  0.00001406  0.0044833 0.9200
 65  -4919.7895968650  -0.000741693875 0.00669741  0.00001361  0.0041246 0.9200
 66  -4919.7902929612  -0.000696096168 0.00644346  0.00001317  0.0037946 0.9200
 67  -4919.7909464594  -0.000653498221 0.00619531  0.00001274  0.0034909 0.9200
 68  -4919.7915601710  -0.000613711602 0.00595267  0.00001232  0.0032115 0.9200
 69  -4919.7921367312  -0.000576560265 0.07144125  0.00014877  0.0029544 0.0000
 70  -4919.8008030844  -0.008666353122 0.00679126  0.00002130  0.0024506 0.0000
 71  -4919.8011002216  -0.000297137232 0.00546298  0.00001751  0.0024885 0.0000
 72  -4919.8013306916  -0.000230470036 0.00583587  0.00001889  0.0024611 0.0000
 73  -4919.8015739966  -0.000243304926 0.00518494  0.00001976  0.0024311 0.0000
 74  -4919.8018398517  -0.000265855190 0.00549483  0.00002306  0.0023879 0.0000
 75  -4919.8021449128  -0.000305061041 0.00454183  0.00002098  0.0023188 0.0000
 76  -4919.8024137466  -0.000268833763 0.00532304  0.00002821  0.0022194 0.0000
 77  -4919.8027622316  -0.000348485003 0.00316442  0.00001468  0.0021071 0.0000
 78  -4919.8029169439  -0.000154712365 0.01397286  0.00007994  0.0019681 0.0000
 79  -4919.8036593113  -0.000742367356 0.00032525  0.00000121  0.0058808 0.9200
 80  -4919.8036643377  -0.000005026416 0.00045982  0.00000166  0.0054340 0.9200
 81  -4919.8036696768  -0.000005339120 0.00050043  0.00000178  0.0050074 0.9200
 82  -4919.8036753658  -0.000005689023 0.00050374  0.00000180  0.0046143 0.9200
 83  -4919.8036817088  -0.000006342922 0.00049863  0.00000181  0.0042562 0.9200
 84  -4919.8036886416  -0.000006932890 0.00050500  0.00000188  0.0039323 0.9200
 85  -4919.8036955106  -0.000006868903 0.00052493  0.00000196  0.0036390 0.9200
 86  -4919.8037017353  -0.000006224722 0.00054328  0.00000206  0.0033701 0.9200
 87  -4919.8037069253  -0.000005190002 0.00054204  0.00000210  0.0031278 0.9200
 88  -4919.8037115511  -0.000004625820 0.00653181  0.00002607  0.0028993 0.0000
 89  -4919.8038999937  -0.000188442603 0.00127601  0.00000709  0.0013630 0.0000
 90  -4919.8039558516  -0.000055857885 0.00727755  0.00004096  0.0012936 0.0000
 91  -4919.8041931940  -0.000237342399 0.00028133  0.00000191  0.0031396 0.9200
 92  -4919.8041797335   0.000013460482 0.00040863  0.00000259  0.0030321 0.9200
 93  -4919.8041575332   0.000022200271 0.00487583  0.00002709  0.0028630 0.0000
 94  -4919.8043153444  -0.000157811147 0.00357062  0.00002009  0.0008079 0.0000
 95  -4919.8043795748  -0.000064230473 0.00207691  0.00001355  0.0014731 0.0000
 96  -4919.8044117572  -0.000032182351 0.00088452  0.00000691  0.0008999 0.0000
 97  -4919.8044255306  -0.000013773363 0.00080108  0.00000558  0.0004058 0.0000
 98  -4919.8044348562  -0.000009325596 0.00052942  0.00000389  0.0003930 0.0000
 99  -4919.8044415601  -0.000006703973 0.00050618  0.00000329  0.0003730 0.0000
100  -4919.8044481239  -0.000006563769 0.00040267  0.00000275  0.0003584 0.0000
101  -4919.8044543558  -0.000006231864 0.00047158  0.00000302  0.0003422 0.0000
102  -4919.8044609372  -0.000006581482 0.00056236  0.00000351  0.0003265 0.0000
103  -4919.8044679301  -0.000006992856 0.00056610  0.00000380  0.0003089 0.0000
104  -4919.8044753966  -0.000007466516 0.00047755  0.00000342  0.0002979 0.0000
105  -4919.8044815646  -0.000006167951 0.00097928  0.00000648  0.0002839 0.0000
106  -4919.8044932450  -0.000011680394 0.00031243  0.00000178  0.0003716 0.0000
107  -4919.8044919429   0.000001302074 0.00185469  0.00001116  0.0002444 0.0000
108  -4919.8045095468  -0.000017603940 0.00104368  0.00000739  0.0008703 0.0000
109  -4919.8045189215  -0.000009374680 0.00106590  0.00000742  0.0004713 0.0000
110  -4919.8045268852  -0.000007963711 0.00120782  0.00000855  0.0004921 0.0000
111  -4919.8045345886  -0.000007703426 0.00101810  0.00000628  0.0006187 0.0000
112  -4919.8045392750  -0.000004686315 0.00117901  0.00000807  0.0003876 0.0000
113  -4919.8045439967  -0.000004721716 0.00066960  0.00000343  0.0005864 0.0000
114  -4919.8045455703  -0.000001573662 0.00088737  0.00000628  0.0001066 0.0000
115  -4919.8045478830  -0.000002312657 0.00064803  0.00000374  0.0004759 0.0000
116  -4919.8045491101  -0.000001227078 0.00052236  0.00000313  0.0002157 0.0000
117  -4919.8045499341  -0.000000824039 0.00027506  0.00000149  0.0001721 0.0000
118  -4919.8045502380  -0.000000303879 0.00034166  0.00000247  0.0000608 0.0000
119  -4919.8045506808  -0.000000442831 0.00022653  0.00000152  0.0001705 0.0000
120  -4919.8045509625  -0.000000281716 0.00016247  0.00000109  0.0000668 0.0000
121  -4919.8045511588  -0.000000196305 0.00010794  0.00000077  0.0000394 0.0000
122  -4919.8045512686  -0.000000109725 0.00009547  0.00000063  0.0000296 0.0000
123  -4919.8045513507  -0.000000082092 0.00007714  0.00000057  0.0000251 0.0000
124  -4919.8045514083  -0.000000057645 0.00009843  0.00000067  0.0000249 0.0000
125  -4919.8045514541  -0.000000045789 0.00005383  0.00000042  0.0000383 0.0000
126  -4919.8045514751  -0.000000020962 0.00007502  0.00000052  0.0000236 0.0000
127  -4919.8045514886  -0.000000013580 0.00003195  0.00000027  0.0000375 0.0000
128  -4919.8045514944  -0.000000005798 0.00001760  0.00000015  0.0000157 0.0000
129  -4919.8045514980  -0.000000003515 0.00001063  0.00000009  0.0000077 0.0000
130  -4919.8045515007  -0.000000002741 0.00000800  0.00000006  0.0000061 0.0000
131  -4919.8045515028  -0.000000002080 0.00000662  0.00000004  0.0000056 0.0000
132  -4919.8045515041  -0.000000001309 0.00000658  0.00000004  0.0000053 0.0000
133  -4919.8045515054  -0.000000001339 0.00000785  0.00000006  0.0000050 0.0000
134  -4919.8045515065  -0.000000001060 0.00000691  0.00000005  0.0000047 0.0000
135  -4919.8045515073  -0.000000000825 0.00001002  0.00000008  0.0000042 0.0000
136  -4919.8045515090  -0.000000001722 0.00000606  0.00000003  0.0000038 0.0000
137  -4919.8045515096  -0.000000000533 0.00001729  0.00000011  0.0000035 0.0000
138  -4919.8045515121  -0.000000002526 0.00000822  0.00000005  0.0000075 0.0000
139  -4919.8045515124  -0.000000000356 0.00001171  0.00000008  0.0000023 0.0000
140  -4919.8045515135  -0.000000001031 0.00000723  0.00000004  0.0000052 0.0000
141  -4919.8045515139  -0.000000000445 0.00000706  0.00000005  0.0000018 0.0000
142  -4919.8045515144  -0.000000000442 0.00000544  0.00000003  0.0000031 0.0000
143  -4919.8045515143   0.000000000063 0.00000399  0.00000002  0.0000020 0.0000
144  -4919.8045515145  -0.000000000195 0.00000313  0.00000002  0.0000015 0.0000
145  -4919.8045515149  -0.000000000364 0.00000208  0.00000001  0.0000011 0.0000
146  -4919.8045515143   0.000000000581 0.00000139  0.00000001  0.0000005 0.0000
                 **** Energy Check signals convergence ****

               *****************************************************
               *                     SUCCESS                       *
               *           SCF CONVERGED AFTER 147 CYCLES          *
               *****************************************************


----------------
TOTAL SCF ENERGY
----------------

Total Energy       :        -4919.80455151 Eh         -133874.68790 eV

Components:
Nuclear Repulsion  :         4929.51954701 Eh          134139.04637 eV
Electronic Energy  :        -9849.32409853 Eh         -268013.73428 eV
One Electron Energy:       -16679.65402182 Eh         -453876.46057 eV
Two Electron Energy:         6830.32992329 Eh          185862.72629 eV
CPCM Dielectric    :           -0.34640671 Eh              -9.42621 eV

Virial components:
Potential Energy   :        -9829.33606570 Eh         -267469.83225 eV
Kinetic Energy     :         4909.53151418 Eh          133595.14435 eV
[...]
                 0.1183               0.3415              -0.5037
                -0.1250              -0.5037              -0.0628

 A(FC)          -0.1056              -0.1056              -0.1056
 A(SD)          -0.2916              -0.5178               0.8094
             ----------           ----------           ----------
 A(Tot)         -0.3972              -0.6234               0.7038    A(iso)=   -0.1056
 Orientation: 
  X          -0.1637589           -0.9781157           -0.1283458
  Y           0.5735300            0.0114588           -0.8191044
  Z           0.8026496           -0.2077458            0.5591022

Notes:  (1) The A matrix conforms to the "SAI" spin Hamiltonian convention.
        (2) Tensor is right-handed.

 RHO(0)=    119.738370739 a.u.**-3

 -----------------------------------------------------------
 Nucleus  14C : A:ISTP=   13 I=  0.5 P=134.1903 MHz/au**3
                Q:ISTP=   13 I=  0.5 Q=  0.0000 barn     
 -----------------------------------------------------------
 Raw HFC matrix (all values in MHz): 
 ------------------------------
                 0.2701              -0.1177              -0.3392
                -0.1177              -0.0531               0.1412
                -0.3392               0.1412               0.1870

 A(FC)           0.1346               0.1346               0.1346
 A(SD)          -0.2150              -0.2698               0.4848
             ----------           ----------           ----------
 A(Tot)         -0.0804              -0.1351               0.6194    A(iso)=    0.1346
 Orientation: 
  X           0.5747242           -0.3958346           -0.7162451
  Y           0.7467666            0.6116568            0.2611813
  Z           0.3347115           -0.6849751            0.6471300

Notes:  (1) The A matrix conforms to the "SAI" spin Hamiltonian convention.
        (2) Tensor is right-handed.

 RHO(0)=    119.515147699 a.u.**-3

 -----------------------------------------------------------
 Nucleus  16C : A:ISTP=   13 I=  0.5 P=134.1903 MHz/au**3
                Q:ISTP=   13 I=  0.5 Q=  0.0000 barn     
 -----------------------------------------------------------
 Raw HFC matrix (all values in MHz): 
 ------------------------------
                 0.0403              -0.0648              -0.1362
                -0.0648              -0.1190               0.0489
                -0.1362               0.0489              -0.0506

 A(FC)          -0.0431              -0.0431              -0.0431
 A(SD)          -0.0989              -0.1060               0.2049
             ----------           ----------           ----------
 A(Tot)         -0.1420              -0.1491               0.1619    A(iso)=   -0.0431
 Orientation: 
  X           0.3626964           -0.5123266           -0.7784425
  Y           0.9309500            0.2370447            0.2777443
  Z           0.0422299           -0.8254279            0.5629257

Notes:  (1) The A matrix conforms to the "SAI" spin Hamiltonian convention.
        (2) Tensor is right-handed.

 RHO(0)=    119.511628566 a.u.**-3

 -----------------------------------------------------------
 Nucleus  18C : A:ISTP=   13 I=  0.5 P=134.1903 MHz/au**3
                Q:ISTP=   13 I=  0.5 Q=  0.0000 barn     
 -----------------------------------------------------------
 Raw HFC matrix (all values in MHz): 
 ------------------------------
                 0.2054              -0.0451              -0.1289
                -0.0451              -0.0270               0.0303
                -0.1289               0.0303               0.0526

 A(FC)           0.0770               0.0770               0.0770
 A(SD)          -0.0969              -0.1143               0.2111
             ----------           ----------           ----------
 A(Tot)         -0.0199              -0.0372               0.2882    A(iso)=    0.0770
 Orientation: 
  X          -0.5176656            0.0265181            0.8551720
  Y          -0.2306652            0.9581841           -0.1693422
  Z          -0.8239029           -0.2849211           -0.4899021

Notes:  (1) The A matrix conforms to the "SAI" spin Hamiltonian convention.
        (2) Tensor is right-handed.

 RHO(0)=    119.522786026 a.u.**-3

 -----------------------------------------------------------
 Nucleus  31C : A:ISTP=   13 I=  0.5 P=134.1903 MHz/au**3
                Q:ISTP=   13 I=  0.5 Q=  0.0000 barn     
 -----------------------------------------------------------
 Raw HFC matrix (all values in MHz): 
 ------------------------------
                -0.0220              -0.1787               0.3334
                -0.1787              -0.3447              -0.1648
                 0.3334              -0.1648              -0.2034

 A(FC)          -0.1900              -0.1900              -0.1900
 A(SD)           0.5110              -0.2309              -0.2801
             ----------           ----------           ----------
 A(Tot)          0.3210              -0.4209              -0.4701    A(iso)=   -0.1900
 Orientation: 
  X          -0.7405704            0.5379011            0.4027628
  Y           0.3420202            0.8176489           -0.4631118
  Z          -0.5784269           -0.2052139           -0.7894996

Notes:  (1) The A matrix conforms to the "SAI" spin Hamiltonian convention.
        (2) Tensor is right-handed.

 RHO(0)=    119.483507594 a.u.**-3

 -----------------------------------------------------------
 Nucleus  36C : A:ISTP=   13 I=  0.5 P=134.1903 MHz/au**3
                Q:ISTP=   13 I=  0.5 Q=  0.0000 barn     
 -----------------------------------------------------------
 Raw HFC matrix (all values in MHz): 
 ------------------------------
                 0.0816              -0.3160               0.2840
                -0.3160               0.1126              -0.3393
                 0.2840              -0.3393              -0.0160

 A(FC)           0.0594               0.0594               0.0594
 A(SD)          -0.2717              -0.3589               0.6306
             ----------           ----------           ----------
 A(Tot)         -0.2123              -0.2995               0.6900    A(iso)=    0.0594
 Orientation: 
  X           0.8080552           -0.1393156            0.5723966
  Y           0.5399762            0.5636182           -0.6251082
  Z          -0.2355258            0.8142025            0.5306618

Notes:  (1) The A matrix conforms to the "SAI" spin Hamiltonian convention.
        (2) Tensor is right-handed.

 RHO(0)=    119.649918495 a.u.**-3

 -----------------------------------------------------------
 Nucleus  38C : A:ISTP=   13 I=  0.5 P=134.1903 MHz/au**3
                Q:ISTP=   13 I=  0.5 Q=  0.0000 barn     
 -----------------------------------------------------------
 Raw HFC matrix (all values in MHz): 
 ------------------------------
                 0.0678              -0.0792               0.0316
                -0.0792               0.3771              -0.1353
                 0.0316              -0.1353               0.1247

 A(FC)           0.1899               0.1899               0.1899
 A(SD)          -0.1412              -0.1236               0.2648
             ----------           ----------           ----------
 A(Tot)          0.0487               0.0663               0.4547    A(iso)=    0.1899
 Orientation: 
  X           0.9662219           -0.1418351            0.2151698
  Y           0.2530672            0.3643958           -0.8961990
  Z           0.0487055            0.9203795            0.3879810

Notes:  (1) The A matrix conforms to the "SAI" spin Hamiltonian convention.
        (2) Tensor is right-handed.

 RHO(0)=    119.612867556 a.u.**-3

 -----------------------------------------------------------
 Nucleus  39C : A:ISTP=   13 I=  0.5 P=134.1903 MHz/au**3
                Q:ISTP=   13 I=  0.5 Q=  0.0000 barn     
 -----------------------------------------------------------
 Raw HFC matrix (all values in MHz): 
 ------------------------------
                -0.2026              -0.0202               0.0215
                -0.0202               0.6434              -0.2390
                 0.0215              -0.2390              -0.1377

 A(FC)           0.1010               0.1010               0.1010
 A(SD)          -0.2899              -0.3205               0.6104
             ----------           ----------           ----------
 A(Tot)         -0.1889              -0.2194               0.7114    A(iso)=    0.1010
 Orientation: 
  X           0.7269591           -0.6861249            0.0276238
  Y           0.2057317            0.1792428           -0.9620533
  Z           0.6551373            0.7050565            0.2714598

Notes:  (1) The A matrix conforms to the "SAI" spin Hamiltonian convention.
        (2) Tensor is right-handed.

 RHO(0)=    119.616347214 a.u.**-3

 -----------------------------------------------------------
 Nucleus  45C : A:ISTP=   13 I=  0.5 P=134.1903 MHz/au**3
                Q:ISTP=   13 I=  0.5 Q=  0.0000 barn     
 -----------------------------------------------------------
 Raw HFC matrix (all values in MHz): 
 ------------------------------
                 0.6200              -0.0291              -0.0428
                -0.0291              -0.2875               0.0695
                -0.0428               0.0695              -0.2342

 A(FC)           0.0328               0.0328               0.0328
 A(SD)          -0.2225              -0.3680               0.5905
             ----------           ----------           ----------
 A(Tot)         -0.1897              -0.3352               0.6233    A(iso)=    0.0328
 Orientation: 
  X           0.0637891           -0.0003300           -0.9979633
  Y           0.5654303            0.8240157            0.0358694
  Z           0.8223257           -0.5665668            0.0527498

Notes:  (1) The A matrix conforms to the "SAI" spin Hamiltonian convention.
        (2) Tensor is right-handed.

 RHO(0)=    119.677461972 a.u.**-3

 -----------------------------------------------------------
 Nucleus  47C : A:ISTP=   13 I=  0.5 P=134.1903 MHz/au**3
                Q:ISTP=   13 I=  0.5 Q=  0.0000 barn     
 -----------------------------------------------------------
 Raw HFC matrix (all values in MHz): 
 ------------------------------
                 0.2598               0.3331              -0.2384
                 0.3331              -0.0494              -0.1340
                -0.2384              -0.1340              -0.1290

 A(FC)           0.0271               0.0271               0.0271
 A(SD)          -0.2556              -0.2952               0.5508
             ----------           ----------           ----------
 A(Tot)         -0.2284              -0.2681               0.5779    A(iso)=    0.0271
 Orientation: 
  X           0.0717638            0.6091653            0.7897896
  Y           0.5087957           -0.7034185            0.4963158
  Z           0.8578910            0.3662240           -0.3604206

Notes:  (1) The A matrix conforms to the "SAI" spin Hamiltonian convention.
        (2) Tensor is right-handed.

 RHO(0)=    119.617389332 a.u.**-3

 -----------------------------------------------------------
 Nucleus  48C : A:ISTP=   13 I=  0.5 P=134.1903 MHz/au**3
                Q:ISTP=   13 I=  0.5 Q=  0.0000 barn     
 -----------------------------------------------------------
 Raw HFC matrix (all values in MHz): 
 ------------------------------
                 0.3464               0.1122              -0.0999
                 0.1122               0.0590              -0.0455
                -0.0999              -0.0455               0.0353

 A(FC)           0.1469               0.1469               0.1469
 A(SD)          -0.1477              -0.1217               0.2695
             ----------           ----------           ----------
 A(Tot)         -0.0008               0.0252               0.4164    A(iso)=    0.1469
 Orientation: 
  X           0.0933402            0.4117634            0.9064979
  Y           0.4856253           -0.8136538            0.3195865
  Z           0.8691695            0.4103881           -0.2759094

Notes:  (1) The A matrix conforms to the "SAI" spin Hamiltonian convention.
        (2) Tensor is right-handed.

 RHO(0)=    119.609363481 a.u.**-3

 -----------------------------------------------------------
 Nucleus   0Fe: A:ISTP=   57 I=  0.5 P= 17.2798 MHz/au**3
                Q:ISTP=   57 I=  0.5 Q=  0.1600 barn     
 -----------------------------------------------------------
 Raw HFC matrix (all values in MHz): 
 ------------------------------
               -12.5109               0.1684              -0.0650
                 0.1684             -11.8539              -0.0695
                -0.0650              -0.0695             -11.7146

 A(FC)         -12.0265             -12.0265             -12.0265
 A(SD)           0.3608               0.1669              -0.5277
             ----------           ----------           ----------
 A(Tot)        -11.6656             -11.8596             -12.5542    A(iso)=  -12.0265
 Orientation: 
  X          -0.1595113            0.1725388           -0.9720013
  Y          -0.4643246            0.8557859            0.2281080
  Z           0.8711824            0.4877099           -0.0563935

Notes:  (1) The A matrix conforms to the "SAI" spin Hamiltonian convention.
        (2) Tensor is right-handed.

 RHO(0)=  11817.213131386 a.u.**-3

 -----------------------------------------------------------
 Nucleus   1Fe: A:ISTP=   57 I=  0.5 P= 17.2798 MHz/au**3
                Q:ISTP=   57 I=  0.5 Q=  0.1600 barn     
 -----------------------------------------------------------
 Raw HFC matrix (all values in MHz): 
 ------------------------------
               -11.7559              -0.3670              -0.6197
                -0.3670             -10.3406               3.0161
                -0.6197               3.0161              -6.0296

 A(FC)          -9.3754              -9.3754              -9.3754
 A(SD)           4.9678              -2.4300              -2.5378
             ----------           ----------           ----------
 A(Tot)         -4.4076             -11.8053             -11.9132    A(iso)=   -9.3754
 Orientation: 
  X          -0.0973689           -0.8934555           -0.4384707
  Y           0.4557914            0.3516168           -0.8176918
  Z           0.8847449           -0.2794689            0.3729928

Notes:  (1) The A matrix conforms to the "SAI" spin Hamiltonian convention.
        (2) Tensor is right-handed.

 RHO(0)=  11815.952864714 a.u.**-3


------------------------------------------------------------------------------- 
----------------------------------------------------------------------------
                           ORCA EULER ANGLE PROGRAM
----------------------------------------------------------------------------

Only g-tensor available        -->  using g-tensor as reference tensor

Reference tensor               ...  g

g-tensor ordering              ...  |g_min> --> |gx>
                                    |g_mid> --> |gy>
                                    |g_max> --> |gz>

A- and EFG-tensor ordering     ...  the axes |Ax>, |Qx>, |Ay>, etc. are assigned
                                    such that the Euler rotation is minimal. You
                                    can find the respective eigenvalues as Ax,
                                    EFGx, Ay, etc. in the tables below.
                                    The relation of |Ax>, |Ay>,  etc. to Amin, Amid, etc.
                                    (as printed in the ORCA EPR/NMR CALCULATION Output)
                                    is obtained in the detailed printout.

Euler rotation around          ...  z - y - z
   First rotation              -->  by alpha around z
   Second rotation             -->  by beta around y'
   Third rotation              -->  by gamma around z''
   Positive / Negative angle   -->  clockwise / counterclockwise rotation

Plot EFG-tensors                    (-)
Plot HFC-tensors                    (-)
Detailed Printout                   (-)

-------------------------------------------------------------------------
          Euler rotation of hyperfine tensor to g-tensor
-------------------------------------------------------------------------

-------------------------------------------------------------------
 Atom  |   Alpha    Beta    Gamma   |   Ax       Ay       Az 
       |          [degrees]         |           [MHz]         
-------------------------------------------------------------------
  4H       42.7     40.0    -78.8       3.96    -2.45    -3.80
  5H      179.1     11.1    169.5       3.80    -4.05    -2.60
 20H       38.5     45.9    -12.8       0.71    -0.32    -0.38
 21H      143.4     43.6   -129.7      -1.32    -0.95     2.04
 22H     -153.7     31.3    147.5      -3.03     3.97    -2.19
 23H      177.4     12.9   -151.5      -2.39     3.74    -2.89
 24H     -147.9     20.5   -172.7      -1.42    -1.53     2.91
 25H      148.6     32.7   -156.1      -0.29    -0.28     0.57
 26H       67.3     38.2    -42.9       2.51    -0.79    -1.54
 27H       41.3     56.6    -55.5       0.58    -0.33    -0.37
 28H      -39.1     35.6     60.1       0.67    -0.08    -0.05
 29H       60.4     26.0    -81.0      -0.85     2.08    -0.89
 30H       54.9     34.5    -46.0      -0.41     1.82    -0.37
 32H     -127.4     40.1    127.8       1.84     0.15     0.22
 33H      135.9     50.7   -131.6       2.53    -0.61    -0.90
 34H     -141.7     50.7    147.7       1.77    -0.76    -0.65
 40H       83.8     20.4    -83.6      -0.89     2.08    -0.88
 41H      152.7     39.5   -109.8       0.79    -0.26    -0.28
 42H       74.9     30.0    -96.9      -0.25     0.66    -0.25
 43H      140.7     47.2   -117.8       2.37    -0.94    -1.25
 49H       80.6     45.2    -75.4       2.52    -0.88    -1.65
 50H     -103.8     43.5    126.7      -0.85    -0.87     1.90
 51H       35.6     46.9    -71.2       0.65    -0.25    -0.27
 52H       61.4     45.7    -72.9       0.81    -0.29    -0.35
  2C      -71.0     33.5     67.2      21.78    13.41    13.54
  3C       18.9     26.1      6.0       1.07     0.30     0.05
 10C       67.2     32.2    -71.2      -0.80     0.34    -0.73
 11C      -86.5     40.8     80.9      -0.62    -0.40     0.70
 14C      179.3     44.2   -147.5      -0.14    -0.08     0.62
 16C       23.1     44.9     -2.5       0.16    -0.14    -0.15
 18C       39.1     53.8    -36.5       0.29    -0.04    -0.02
 31C      130.5     43.5   -114.0       0.32    -0.42    -0.47
 36C     -127.9     56.7    142.2       0.69    -0.30    -0.21
 38C       64.8     36.0    -88.7       0.05     0.45     0.07
 39C      128.7     38.4   -149.6      -0.19     0.71    -0.22
 45C      -65.4     42.8     70.2       0.62    -0.19    -0.34
 47C     -119.1     49.3    145.0      -0.27    -0.23     0.58
 48C       41.0     47.6    -73.2       0.42     0.03    -0.00
  0Fe     -58.4     14.0     67.0     -12.55   -11.86   -11.67
  1Fe     101.4     42.1    -86.9     -11.81   -11.91    -4.41
-------------------------------------------------------------------


Timings for individual modules:

Sum of individual times         ...   105597.134 sec (=1759.952 min)
GTO integral calculation        ...       84.757 sec (=   1.413 min)   0.1 %
Spin-Orbit-Coupling Matrices    ...      581.592 sec (=   9.693 min)   0.6 %
SCF iterations                  ...    98824.961 sec (=1647.083 min)  93.6 %
EPR/NMR calculation             ...     2673.052 sec (=  44.551 min)   2.5 %
SCF Gradient evaluation         ...     3351.497 sec (=  55.858 min)   3.2 %
Geometry relaxation             ...       20.616 sec (=   0.344 min)   0.0 %
Orbital/Density plot generation ...       60.658 sec (=   1.011 min)   0.1 %
                             ****ORCA TERMINATED NORMALLY****
TOTAL RUN TIME: 1 days 5 hours 20 minutes 14 seconds 567 msec
